<LesHouchesEvents version="3.0">
<header>
<!--
#*********************************************************************
#                                                                    *
#                        MadGraph5_aMC@NLO                           *
#                                                                    *
#                           Going Beyond                             *
#                                                                    *
#                   http://madgraph.hep.uiuc.edu                     *
#                   http://madgraph.phys.ucl.ac.be                   *
#                   http://amcatnlo.cern.ch                          *
#                                                                    *
#                     The MadGraph5_aMC@NLO team                     *
#                                                                    *
#....................................................................*
#                                                                    *
# This file contains all the information necessary to reproduce      *
# the events generated:                                              *
#                                                                    *
# 1. software version                                                *
# 2. proc_card          : code generation info including model       *
# 3. param_card         : model primary parameters in the LH format  *
# 4. run_card           : running parameters (collider and cuts)     *
# 5. pythia_card        : present only if pythia has been run        *
# 6. pgs_card           : present only if pgs has been run           *
# 7. delphes_cards      : present only if delphes has been run       *
#                                                                    *
#                                                                    *
#*********************************************************************
-->
<MGVersion>
2.2.3
</MGVersion>
<MG5ProcCard>
#************************************************************
#*                     MadGraph5_aMC@NLO                    *
#*                                                          *
#*                *                       *                 *
#*                  *        * *        *                   *
#*                    * * * * 5 * * * *                     *
#*                  *        * *        *                   *
#*                *                       *                 *
#*                                                          *
#*                                                          *
#*         VERSION 2.2.3                 2015-02-10         *
#*                                                          *
#*    The MadGraph5_aMC@NLO Development Team - Find us at   *
#*    https://server06.fynu.ucl.ac.be/projects/madgraph     *
#*                                                          *
#************************************************************
#*                                                          *
#*               Command File for MadGraph5_aMC@NLO         *
#*                                                          *
#*     run as ./bin/mg5_aMC  filename                       *
#*                                                          *
#************************************************************
set group_subprocesses Auto
set ignore_six_quark_processes False
set loop_optimized_output True
set complex_mass_scheme False
import model sm
define p = g u c d s u~ c~ d~ s~
define j = g u c d s u~ c~ d~ s~
define l+ = e+ mu+
define l- = e- mu-
define vl = ve vm vt
define vl~ = ve~ vm~ vt~
generate p p > t t~ > b b~ mu- mu+ vm vm~
output Production/TTtoDiMuon
</MG5ProcCard>
<MGProcCard>
#*********************************************************************
#                        MadGraph/MadEvent                           *
#                   http://madgraph.hep.uiuc.edu                     *
#                                                                    *
#                          proc_card.dat                             *
#*********************************************************************
#                                                                    *
#            This Files is generated by MADGRAPH 5                   *
#                                                                    *
# WARNING: This Files is generated for MADEVENT (compatibility issue)*
#          This files is NOT a valid MG4 proc_card.dat               *
#          Running this in MG4 will NEVER reproduce the result of MG5*
#                                                                    *
#*********************************************************************
#*********************************************************************
# Process(es) requested : mg2 input                                  *
#*********************************************************************
# Begin PROCESS # This is TAG. Do not modify this line
p p > t t~ > b b~ mu- mu+ vm vm~           #Process
# Be carefull the coupling are here in MG5 convention
          
end_coup           # End the couplings input

done               # this tells MG there are no more procs
# End PROCESS  # This is TAG. Do not modify this line
#*********************************************************************
# Model information                                                  *
#*********************************************************************
# Begin MODEL  # This is TAG. Do not modify this line
sm
# End   MODEL  # This is TAG. Do not modify this line
#*********************************************************************
# Start multiparticle definitions                                    *
#*********************************************************************
# Begin MULTIPARTICLES # This is TAG. Do not modify this line

# End  MULTIPARTICLES # This is TAG. Do not modify this line
</MGProcCard>
<MGRunCard>
#*********************************************************************
#                       MadGraph5_aMC@NLO                            *
#                                                                    *
#                     run_card.dat MadEvent                          *
#                                                                    *
#  This file is used to set the parameters of the run.               *
#                                                                    *
#  Some notation/conventions:                                        *
#                                                                    *
#   Lines starting with a '# ' are info or comments                  *
#                                                                    *
#   mind the format:   value    = variable     ! comment             *
#*********************************************************************
#
#*******************                                                 
# Running parameters
#*******************                                                 
#                                                                    
#*********************************************************************
# Tag name for the run (one word)                                    *
#*********************************************************************
  tag_1     = run_tag ! name of the run 
#*********************************************************************
# Run to generate the grid pack                                      *
#*********************************************************************
  .false.     = gridpack  !True = setting up the grid pack
#*********************************************************************
# Number of events and rnd seed                                      *
# Warning: Do not generate more than 1M events in a single run       *
# If you want to run Pythia, avoid more than 50k events in a run.    *
#*********************************************************************
  50000 = nevents ! Number of unweighted events requested 
 39 = iseed   ! rnd seed (0=assigned automatically=default))
#*********************************************************************
# Collider type and energy                                           *
# lpp: 0=No PDF, 1=proton, -1=antiproton, 2=photon from proton,      *
#                                         3=photon from electron     *
#*********************************************************************
        1     = lpp1    ! beam 1 type 
        1     = lpp2    ! beam 2 type
     6500     = ebeam1  ! beam 1 total energy in GeV
     6500     = ebeam2  ! beam 2 total energy in GeV
#*********************************************************************
# Beam polarization from -100 (left-handed) to 100 (right-handed)    *
#*********************************************************************
        0     = polbeam1 ! beam polarization for beam 1
        0     = polbeam2 ! beam polarization for beam 2
#*********************************************************************
# PDF CHOICE: this automatically fixes also alpha_s and its evol.    *
#*********************************************************************
 'nn23lo1'    = pdlabel     ! PDF set                                     
 230000    = lhaid     ! if pdlabel=lhapdf, this is the lhapdf number
#*********************************************************************
# Renormalization and factorization scales                           *
#*********************************************************************
 F        = fixed_ren_scale  ! if .true. use fixed ren scale
 F        = fixed_fac_scale  ! if .true. use fixed fac scale
 91.1880  = scale            ! fixed ren scale
 91.1880  = dsqrt_q2fact1    ! fixed fact scale for pdf1
 91.1880  = dsqrt_q2fact2    ! fixed fact scale for pdf2
 1        = scalefact        ! scale factor for event-by-event scales
#*********************************************************************
# Matching - Warning! ickkw > 1 is still beta
#*********************************************************************
 0        = ickkw            ! 0 no matching, 1 MLM, 2 CKKW matching
 1        = highestmult      ! for ickkw=2, highest mult group
 1        = ktscheme         ! for ickkw=1, 1 Durham kT, 2 Pythia pTE
 1        = alpsfact         ! scale factor for QCD emission vx
 F        = chcluster        ! cluster only according to channel diag
 T        = pdfwgt           ! for ickkw=1, perform pdf reweighting
 5        = asrwgtflavor     ! highest quark flavor for a_s reweight
 T        = clusinfo         ! include clustering tag in output
 3.0      = lhe_version       ! Change the way clustering information pass to shower.        
#*********************************************************************
#**********************************************************
#
#**********************************************************
# Automatic ptj and mjj cuts if xqcut > 0
# (turn off for VBF and single top processes)
#**********************************************************
   T  = auto_ptj_mjj  ! Automatic setting of ptj and mjj
#**********************************************************
#                                                                    
#**********************************
# BW cutoff (M+/-bwcutoff*Gamma)
#**********************************
  15  = bwcutoff      ! (M+/-bwcutoff*Gamma)
#**********************************************************
# Apply pt/E/eta/dr/mij cuts on decay products or not
# (note that etmiss/ptll/ptheavy/ht/sorted cuts always apply)
#**********************************************************
   T  = cut_decays    ! Cut decay products 
#*************************************************************
# Number of helicities to sum per event (0 = all helicities)
# 0 gives more stable result, but longer run time (needed for
# long decay chains e.g.).
# Use >=2 if most helicities contribute, e.g. pure QCD.
#*************************************************************
   0  = nhel          ! Number of helicities used per event
#*******************                                                 
# Standard Cuts
#*******************                                                 
#                                                                    
#*********************************************************************
# Minimum and maximum pt's (for max, -1 means no cut)                *
#*********************************************************************
 20  = ptj       ! minimum pt for the jets 
  0  = ptb       ! minimum pt for the b 
 10  = pta       ! minimum pt for the photons 
 10  = ptl       ! minimum pt for the charged leptons 
  0  = misset    ! minimum missing Et (sum of neutrino's momenta)
  0  = ptheavy   ! minimum pt for one heavy final state
 1.0 = ptonium   ! minimum pt for the quarkonium states
 -1  = ptjmax    ! maximum pt for the jets
 -1  = ptbmax    ! maximum pt for the b
 -1  = ptamax    ! maximum pt for the photons
 -1  = ptlmax    ! maximum pt for the charged leptons
 -1  = missetmax ! maximum missing Et (sum of neutrino's momenta)
#*********************************************************************
# Minimum and maximum E's (in the center of mass frame)              *
#*********************************************************************
  0  = ej     ! minimum E for the jets 
  0  = eb     ! minimum E for the b 
  0  = ea     ! minimum E for the photons 
  0  = el     ! minimum E for the charged leptons 
 -1   = ejmax ! maximum E for the jets
 -1   = ebmax ! maximum E for the b
 -1   = eamax ! maximum E for the photons
 -1   = elmax ! maximum E for the charged leptons
#*********************************************************************
# Maximum and minimum absolute rapidity (for max, -1 means no cut)   *
#*********************************************************************
   5  = etaj    ! max rap for the jets 
  -1  = etab    ! max rap for the b
 2.5  = etaa    ! max rap for the photons 
 2.5  = etal    ! max rap for the charged leptons 
 0.6  = etaonium ! max rap for the quarkonium states
   0  = etajmin ! min rap for the jets
   0  = etabmin ! min rap for the b
   0  = etaamin ! min rap for the photons
   0  = etalmin ! main rap for the charged leptons
#*********************************************************************
# Minimum and maximum DeltaR distance                                *
#*********************************************************************
 0.4 = drjj    ! min distance between jets 
 0   = drbb    ! min distance between b's 
 0.4 = drll    ! min distance between leptons 
 0.4 = draa    ! min distance between gammas 
 0   = drbj    ! min distance between b and jet 
 0.4 = draj    ! min distance between gamma and jet 
 0.4 = drjl    ! min distance between jet and lepton 
 0   = drab    ! min distance between gamma and b 
 0   = drbl    ! min distance between b and lepton 
 0.4 = dral    ! min distance between gamma and lepton 
 -1  = drjjmax ! max distance between jets
 -1  = drbbmax ! max distance between b's
 -1  = drllmax ! max distance between leptons
 -1  = draamax ! max distance between gammas
 -1  = drbjmax ! max distance between b and jet
 -1  = drajmax ! max distance between gamma and jet
 -1  = drjlmax ! max distance between jet and lepton
 -1  = drabmax ! max distance between gamma and b
 -1  = drblmax ! max distance between b and lepton
 -1  = dralmax ! maxdistance between gamma and lepton
#*********************************************************************
# Minimum and maximum invariant mass for pairs                       *
# WARNING: for four lepton final state mmll cut require to have      *
#          different lepton masses for each flavor!                  *           
#*********************************************************************
 0   = mmjj    ! min invariant mass of a jet pair 
 0   = mmbb    ! min invariant mass of a b pair 
 0   = mmaa    ! min invariant mass of gamma gamma pair
 0   = mmll    ! min invariant mass of l+l- (same flavour) lepton pair
 -1  = mmjjmax ! max invariant mass of a jet pair
 -1  = mmbbmax ! max invariant mass of a b pair
 -1  = mmaamax ! max invariant mass of gamma gamma pair
 -1  = mmllmax ! max invariant mass of l+l- (same flavour) lepton pair
#*********************************************************************
# Minimum and maximum invariant mass for all letpons                 *
#*********************************************************************
 0   = mmnl    ! min invariant mass for all letpons (l+- and vl) 
 -1  = mmnlmax ! max invariant mass for all letpons (l+- and vl) 
#*********************************************************************
# Minimum and maximum pt for 4-momenta sum of leptons                *
#*********************************************************************
 0   = ptllmin  ! Minimum pt for 4-momenta sum of leptons(l and vl)
 -1  = ptllmax  ! Maximum pt for 4-momenta sum of leptons(l and vl)
#*********************************************************************
# Inclusive cuts                                                     *
#*********************************************************************
 0  = xptj ! minimum pt for at least one jet  
 0  = xptb ! minimum pt for at least one b 
 0  = xpta ! minimum pt for at least one photon 
 0  = xptl ! minimum pt for at least one charged lepton 
#*********************************************************************
# Control the pt's of the jets sorted by pt                          *
#*********************************************************************
 0   = ptj1min ! minimum pt for the leading jet in pt
 0   = ptj2min ! minimum pt for the second jet in pt
 0   = ptj3min ! minimum pt for the third jet in pt
 0   = ptj4min ! minimum pt for the fourth jet in pt
 -1  = ptj1max ! maximum pt for the leading jet in pt 
 -1  = ptj2max ! maximum pt for the second jet in pt
 -1  = ptj3max ! maximum pt for the third jet in pt
 -1  = ptj4max ! maximum pt for the fourth jet in pt
 0   = cutuse  ! reject event if fails any (0) / all (1) jet pt cuts
#*********************************************************************
# Control the pt's of leptons sorted by pt                           *
#*********************************************************************
 0   = ptl1min ! minimum pt for the leading lepton in pt
 0   = ptl2min ! minimum pt for the second lepton in pt
 0   = ptl3min ! minimum pt for the third lepton in pt
 0   = ptl4min ! minimum pt for the fourth lepton in pt
 -1  = ptl1max ! maximum pt for the leading lepton in pt 
 -1  = ptl2max ! maximum pt for the second lepton in pt
 -1  = ptl3max ! maximum pt for the third lepton in pt
 -1  = ptl4max ! maximum pt for the fourth lepton in pt
#*********************************************************************
# Control the Ht(k)=Sum of k leading jets                            *
#*********************************************************************
 0   = htjmin ! minimum jet HT=Sum(jet pt)
 -1  = htjmax ! maximum jet HT=Sum(jet pt)
 0   = ihtmin  !inclusive Ht for all partons (including b)
 -1  = ihtmax  !inclusive Ht for all partons (including b)
 0   = ht2min ! minimum Ht for the two leading jets
 0   = ht3min ! minimum Ht for the three leading jets
 0   = ht4min ! minimum Ht for the four leading jets
 -1  = ht2max ! maximum Ht for the two leading jets
 -1  = ht3max ! maximum Ht for the three leading jets
 -1  = ht4max ! maximum Ht for the four leading jets
#***********************************************************************
# Photon-isolation cuts, according to hep-ph/9801442                   *
# When ptgmin=0, all the other parameters are ignored                  *
# When ptgmin>0, pta and draj are not going to be used                 *
#***********************************************************************
   0 = ptgmin ! Min photon transverse momentum
 0.4 = R0gamma ! Radius of isolation code
 1.0 = xn ! n parameter of eq.(3.4) in hep-ph/9801442
 1.0 = epsgamma ! epsilon_gamma parameter of eq.(3.4) in hep-ph/9801442
 .true. = isoEM ! isolate photons from EM energy (photons and leptons)
#*********************************************************************
# WBF cuts                                                           *
#*********************************************************************
 0   = xetamin ! minimum rapidity for two jets in the WBF case  
 0   = deltaeta ! minimum rapidity for two jets in the WBF case 
#*********************************************************************
# KT DURHAM CUT                                                      *
#*********************************************************************
 -1    =  ktdurham        
 0.4  =  dparameter 
#*********************************************************************
# maximal pdg code for quark to be considered as a light jet         *
# (otherwise b cuts are applied)                                     *
#*********************************************************************
 4 = maxjetflavor    ! Maximum jet pdg code
#*********************************************************************
# Jet measure cuts                                                   *
#*********************************************************************
 40   = xqcut   ! minimum kt jet measure between partons
#*********************************************************************
#
#*********************************************************************
# Store info for systematics studies                                 *
# WARNING: If use_syst is T, matched Pythia output is                *
#          meaningful ONLY if plotted taking matchscale              *
#          reweighting into account!                                 *
#*********************************************************************
   F  = use_syst      ! Enable systematics studies
#
#**************************************
# Parameter of the systematics study
#  will be used by SysCalc (if installed)
#**************************************                                  
#
0.5 1 2 = sys_scalefact  # factorization/renormalization scale factor
0.5 1 2 = sys_alpsfact  # \alpha_s emission scale factors
30 50 = sys_matchscale # variation of merging scale
# PDF sets and number of members (0 or none for all members).
CT10nlo.LHgrid = sys_pdf # matching scales
# MSTW2008nlo68cl.LHgrid 1  = sys_pdf
</MGRunCard>
<slha>
######################################################################
## PARAM_CARD AUTOMATICALY GENERATED BY MG5 FOLLOWING UFO MODEL   ####
######################################################################
##                                                                  ##
##  Width set on Auto will be computed following the information    ##
##        present in the decay.py files of the model.               ##
##        See  arXiv:1402.1178 for more details.                    ##
##                                                                  ##
######################################################################

###################################
## INFORMATION FOR MASS
###################################
Block mass 
    5 4.700000e+00 # MB 
    6 1.730000e+02 # MT 
   15 1.777000e+00 # MTA 
   23 9.118800e+01 # MZ 
   25 1.250000e+02 # MH 
## Dependent parameters, given by model restrictions.
## Those values should be edited following the 
## analytical expression. MG5 ignores those values 
## but they are important for interfacing the output of MG5
## to external program such as Pythia.
  1 0.000000 # d : 0.0 
  2 0.000000 # u : 0.0 
  3 0.000000 # s : 0.0 
  4 0.000000 # c : 0.0 
  11 0.000000 # e- : 0.0 
  12 0.000000 # ve : 0.0 
  13 0.000000 # mu- : 0.0 
  14 0.000000 # vm : 0.0 
  16 0.000000 # vt : 0.0 
  21 0.000000 # g : 0.0 
  22 0.000000 # a : 0.0 
  24 80.419002 # w+ : cmath.sqrt(MZ__exp__2/2. + cmath.sqrt(MZ__exp__4/4. - (aEW*cmath.pi*MZ__exp__2)/(Gf*sqrt__2))) 

###################################
## INFORMATION FOR SMINPUTS
###################################
Block sminputs 
    1 1.325070e+02 # aEWM1 
    2 1.166390e-05 # Gf 
    3 1.180000e-01 # aS 

###################################
## INFORMATION FOR YUKAWA
###################################
Block yukawa 
    5 4.700000e+00 # ymb 
    6 1.730000e+02 # ymt 
   15 1.777000e+00 # ymtau 

###################################
## INFORMATION FOR DECAY
###################################
DECAY   6 1.491500e+00 # WT 
DECAY  23 2.441404e+00 # WZ 
DECAY  24 2.047600e+00 # WW 
DECAY  25 6.382339e-03 # WH 
## Dependent parameters, given by model restrictions.
## Those values should be edited following the 
## analytical expression. MG5 ignores those values 
## but they are important for interfacing the output of MG5
## to external program such as Pythia.
DECAY  1 0.000000 # d : 0.0 
DECAY  2 0.000000 # u : 0.0 
DECAY  3 0.000000 # s : 0.0 
DECAY  4 0.000000 # c : 0.0 
DECAY  5 0.000000 # b : 0.0 
DECAY  11 0.000000 # e- : 0.0 
DECAY  12 0.000000 # ve : 0.0 
DECAY  13 0.000000 # mu- : 0.0 
DECAY  14 0.000000 # vm : 0.0 
DECAY  15 0.000000 # ta- : 0.0 
DECAY  16 0.000000 # vt : 0.0 
DECAY  21 0.000000 # g : 0.0 
DECAY  22 0.000000 # a : 0.0
</slha>
## END BANNER##
<MGGenerationInfo>
#  Number of Events        :        50000
#  Integrated weight (pb)  :  0.46422E+01
#  Truncated wgt (pb)      :  0.00000E+00
#  Unit wgt                :  0.92844E-04
</MGGenerationInfo>
</header>
<init>
     2212     2212  0.65000000000E+04  0.65000000000E+04 0 0  247000  247000  3   1
  0.46422007217E+01  0.68354010627E-02  0.92844000000E-04   0
<generator name='MadGraph5_aMC@NLO' version='2.2.3'>please cite 1405.0301 </generator>
</init>
<event>
12   0  0.9284400E-04  0.3496192E+03  0.7546771E-02  0.1062842E+00
       21   -1    0    0  503  502  0.00000000000E+00  0.00000000000E+00  0.13513245777E+04  0.13513245777E+04  0.00000000000E+00 0.  1.
       21   -1    0    0  501  503  0.00000000000E+00  0.00000000000E+00 -0.11106639800E+03  0.11106639800E+03  0.00000000000E+00 0. -1.
        6    2    1    2  501    0 -0.74044899910E+02  0.29410071279E+03  0.93696664465E+03  0.10000700225E+04  0.17394160021E+03 0.  0.
       24    2    3    3    0    0 -0.75769793901E+02  0.15323589896E+03  0.36751788765E+03  0.41343568336E+03  0.81470019833E+02 0.  0.
       -6    2    1    2    0  502  0.74044899910E+02 -0.29410071279E+03  0.30329153509E+03  0.46232095323E+03  0.17256022737E+03 0.  0.
      -24    2    5    5    0    0  0.88121856348E+02 -0.19219938415E+03  0.13035786831E+03  0.26104953303E+03  0.80297073631E+02 0.  0.
        5    1    3    3  501    0  0.17248939908E+01  0.14086481383E+03  0.56944875700E+03  0.58663433916E+03  0.46999998093E+01 0. -1.
       -5    1    5    5    0  502 -0.14076956438E+02 -0.10190132864E+03  0.17293366679E+03  0.20127142020E+03  0.46999998093E+01 0.  1.
       13    1    6    6    0    0  0.50542008576E+02 -0.15497677844E+03  0.61510096437E+02  0.17422912630E+03  0.00000000000E+00 0. -1.
      -13    1    4    4    0    0 -0.72206567331E+02  0.10327896461E+03  0.32191185332E+03  0.34569867545E+03  0.00000000000E+00 0.  1.
       14    1    4    4    0    0 -0.35632265697E+01  0.49956934352E+02  0.45606034328E+02  0.67737007910E+02  0.00000000000E+00 0. -1.
      -14    1    6    6    0    0  0.37579847772E+02 -0.37222605709E+02  0.68847771869E+02  0.86820406735E+02  0.00000000000E+00 0.  1.
</event>
<event>
12   0  0.9284400E-04  0.2209767E+03  0.7546771E-02  0.1133158E+00
       21   -1    0    0  503  502  0.00000000000E+00  0.00000000000E+00  0.16063170421E+03  0.16063170421E+03  0.00000000000E+00 0. -1.
       21   -1    0    0  501  503  0.00000000000E+00  0.00000000000E+00 -0.56073905571E+03  0.56073905571E+03  0.00000000000E+00 0. -1.
        6    2    1    2  501    0  0.13293718747E+03  0.32711479498E+02 -0.44411858660E+03  0.49605393621E+03  0.17345273697E+03 0.  0.
       24    2    3    3    0    0  0.77163797547E+02  0.79125676498E+02 -0.34226120108E+03  0.37090616080E+03  0.90628505573E+02 0.  0.
       -6    2    1    2    0  502 -0.13293718747E+03 -0.32711479498E+02  0.44011235103E+02  0.22531682372E+03  0.17345992486E+03 0.  0.
      -24    2    5    5    0    0 -0.14280937703E+03 -0.20809191826E+02  0.82211730023E+02  0.18383800516E+03  0.78804206460E+02 0.  0.
        5    1    3    3  501    0  0.55773389921E+02 -0.46414197000E+02 -0.10185738552E+03  0.12514777541E+03  0.46999998093E+01 0. -1.
       -5    1    5    5    0  502  0.98721895636E+01 -0.11902287672E+02 -0.38200494920E+02  0.41478818558E+02  0.46999998093E+01 0.  1.
       13    1    6    6    0    0 -0.23059676816E+02  0.16152515589E+02  0.45043277451E+02  0.53118257674E+02  0.00000000000E+00 0. -1.
      -13    1    4    4    0    0 -0.18978219210E+02  0.12267119018E+02 -0.89929032746E+02  0.92724786028E+02  0.00000000000E+00 0.  1.
       14    1    4    4    0    0  0.96142016756E+02  0.66858557480E+02 -0.25233216833E+03  0.27818137477E+03  0.00000000000E+00 0. -1.
      -14    1    6    6    0    0 -0.11974970021E+03 -0.36961707415E+02  0.37168452571E+02  0.13071974749E+03  0.00000000000E+00 0.  1.
</event>
<event>
12   0  0.9284400E-04  0.2048009E+03  0.7546771E-02  0.1145793E+00
       21   -1    0    0  501  502  0.00000000000E+00  0.00000000000E+00  0.68846261433E+02  0.68846261433E+02  0.00000000000E+00 0.  1.
       21   -1    0    0  502  503  0.00000000000E+00  0.00000000000E+00 -0.92562308978E+03  0.92562308978E+03  0.00000000000E+00 0. -1.
       -6    2    1    2    0  503 -0.96428243115E+02 -0.50239211487E+02 -0.13754076750E+03  0.24669997604E+03  0.17355411551E+03 0.  0.
      -24    2    3    3    0    0 -0.13585849598E+03 -0.39132841297E+02 -0.10179959565E+03  0.19213242466E+03  0.81011114870E+02 0.  0.
        6    2    1    2  501    0  0.96428243115E+02  0.50239211487E+02 -0.71923606084E+03  0.74776937517E+03  0.17330938461E+03 0.  0.
       24    2    5    5    0    0 -0.18191236924E+02  0.15571148201E+02 -0.34166122209E+03  0.35163259492E+03  0.79622291921E+02 0.  0.
        5    1    5    5  501    0  0.11461948004E+03  0.34668063286E+02 -0.37757483875E+03  0.39613678026E+03  0.46999998093E+01 0. -1.
       -5    1    3    3    0  503  0.39430252864E+02 -0.11106370190E+02 -0.35741171857E+02  0.54567551380E+02  0.46999998093E+01 0.  1.
       13    1    4    4    0    0 -0.71235502460E+02  0.15691222111E+02 -0.71475912669E+02  0.10212500846E+03  0.00000000000E+00 0. -1.
      -13    1    6    6    0    0  0.28059000463E+01  0.29801682553E+02 -0.45977844631E+02  0.54863244117E+02  0.00000000000E+00 0.  1.
       14    1    6    6    0    0 -0.20997136971E+02 -0.14230534352E+02 -0.29568337746E+03  0.29676935080E+03  0.00000000000E+00 0. -1.
      -14    1    4    4    0    0 -0.64622993519E+02 -0.54824063409E+02 -0.30323682978E+02  0.90007416191E+02  0.00000000000E+00 0.  1.
</event>
<event>
12   0  0.9284400E-04  0.2229843E+03  0.7546771E-02  0.1131718E+00
       21   -1    0    0  501  502  0.00000000000E+00  0.00000000000E+00  0.63653885363E+03  0.63653885363E+03  0.00000000000E+00 0. -1.
       21   -1    0    0  502  503  0.00000000000E+00  0.00000000000E+00 -0.12382890453E+03  0.12382890453E+03  0.00000000000E+00 0.  1.
       -6    2    1    2    0  503 -0.71681526356E+02  0.12087442857E+03  0.25238501611E+02  0.22440807713E+03  0.17312750912E+03 0.  0.
      -24    2    3    3    0    0 -0.37784932573E+02 -0.11843821458E+01 -0.18960210931E+02  0.90158501592E+02  0.79623877827E+02 0.  0.
        6    2    1    2  501    0  0.71681526356E+02 -0.12087442857E+03  0.48747144749E+03  0.53595968103E+03  0.17284530329E+03 0.  0.
       24    2    5    5    0    0  0.46898911673E+02  0.15374584203E+01  0.15589404326E+03  0.18160884773E+03  0.80479495248E+02 0.  0.
        5    1    5    5  501    0  0.24782614683E+02 -0.12241188699E+03  0.33157740423E+03  0.35435083330E+03  0.46999998093E+01 0. -1.
       -5    1    3    3    0  503 -0.33896593782E+02  0.12205881072E+03  0.44198712542E+02  0.13424957554E+03  0.46999998093E+01 0.  1.
       13    1    4    4    0    0  0.18472697129E+02 -0.79136610491E+01  0.14109632842E+02  0.24555005790E+02  0.00000000000E+00 0. -1.
      -13    1    6    6    0    0  0.19373201909E+02 -0.14703894389E+02  0.19690591367E+01  0.24400874089E+02  0.00000000000E+00 0.  1.
       14    1    6    6    0    0  0.27525709763E+02  0.16241352809E+02  0.15392498412E+03  0.15720797364E+03  0.00000000000E+00 0. -1.
      -14    1    4    4    0    0 -0.56257629703E+02  0.67292789034E+01 -0.33069843772E+02  0.65603495802E+02  0.00000000000E+00 0.  1.
</event>
<event>
12   0  0.9284400E-04  0.1778064E+03  0.7546771E-02  0.1170254E+00
       21   -1    0    0  501  502  0.00000000000E+00  0.00000000000E+00  0.34016680400E+02  0.34016680400E+02  0.00000000000E+00 0.  1.
       21   -1    0    0  502  503  0.00000000000E+00  0.00000000000E+00 -0.10689870110E+04  0.10689870110E+04  0.00000000000E+00 0.  1.
       -6    2    1    2    0  503 -0.39278435866E+02  0.11674802596E+02 -0.71981876579E+03  0.74115341196E+03  0.17172719041E+03 0.  0.
      -24    2    3    3    0    0 -0.37809194309E+02 -0.50247370188E+02 -0.56785721906E+03  0.57698607100E+03  0.80602552706E+02 0.  0.
        6    2    1    2  501    0  0.39278435866E+02 -0.11674802596E+02 -0.31515156484E+03  0.36185027948E+03  0.17302028609E+03 0.  0.
       24    2    5    5    0    0 -0.22326905445E+02 -0.10141515172E+02 -0.73137885956E+02  0.11206981624E+03  0.81296693132E+02 0.  0.
        5    1    5    5  501    0  0.61605341310E+02 -0.15332874240E+01 -0.24201367889E+03  0.24978046324E+03  0.46999998093E+01 0. -1.
       -5    1    3    3    0  503 -0.14692415572E+01  0.61922172784E+02 -0.15196154673E+03  0.16416734096E+03  0.46999998093E+01 0.  1.
       13    1    4    4    0    0 -0.54143620791E+02 -0.17598100521E+02 -0.22109172730E+03  0.22830413202E+03  0.00000000000E+00 0. -1.
      -13    1    6    6    0    0 -0.46573965034E+02  0.84683686575E+01 -0.65052667196E+02  0.80453073255E+02  0.00000000000E+00 0.  1.
       14    1    6    6    0    0  0.24247059590E+02 -0.18609883829E+02 -0.80852187595E+01  0.31616742990E+02  0.00000000000E+00 0. -1.
      -14    1    4    4    0    0  0.16334426483E+02 -0.32649269668E+02 -0.34676549176E+03  0.34868193898E+03  0.00000000000E+00 0.  1.
</event>
<event>
12   0  0.9284400E-04  0.1965660E+03  0.7546771E-02  0.1152927E+00
       21   -1    0    0  501  502  0.00000000000E+00  0.00000000000E+00  0.44940213039E+03  0.44940213039E+03  0.00000000000E+00 0. -1.
       21   -1    0    0  502  503  0.00000000000E+00  0.00000000000E+00 -0.10606163203E+03  0.10606163203E+03  0.00000000000E+00 0. -1.
       -6    2    1    2    0  503 -0.14290103628E+02 -0.91795642756E+02  0.48835164972E+02  0.20138525075E+03  0.17187349648E+03 0.  0.
      -24    2    3    3    0    0 -0.89721001316E+01 -0.34436539265E+02 -0.38917287227E+02  0.96309417284E+02  0.80588924767E+02 0.  0.
        6    2    1    2  501    0  0.14290103628E+02  0.91795642756E+02  0.29450533339E+03  0.35407851166E+03  0.17322688571E+03 0.  0.
       24    2    5    5    0    0 -0.28325301816E+02  0.79200602725E+02  0.95391049643E+02  0.15001162115E+03  0.79554861144E+02 0.  0.
        5    1    5    5  501    0  0.42615405443E+02  0.12595040031E+02  0.19911428375E+03  0.20406689052E+03  0.46999998093E+01 0. -1.
       -5    1    3    3    0  503 -0.53180034961E+01 -0.57359103491E+02  0.87752452199E+02  0.10507583347E+03  0.46999998093E+01 0.  1.
       13    1    4    4    0    0 -0.27538894483E+02 -0.51856626840E+02 -0.13321302530E+02  0.60207620429E+02  0.00000000000E+00 0. -1.
      -13    1    6    6    0    0 -0.44960413943E+02  0.13222970768E+02  0.30019626224E+02  0.55654862649E+02  0.00000000000E+00 0.  1.
       14    1    6    6    0    0  0.16635112127E+02  0.65977631957E+02  0.65371423419E+02  0.94356758497E+02  0.00000000000E+00 0. -1.
      -14    1    4    4    0    0  0.18566794352E+02  0.17420087575E+02 -0.25595984697E+02  0.36101796856E+02  0.00000000000E+00 0.  1.
</event>
<event>
12   0  0.9284400E-04  0.1836457E+03  0.7546771E-02  0.1164323E+00
       21   -1    0    0  501  502  0.00000000000E+00  0.00000000000E+00  0.67580895733E+02  0.67580895733E+02  0.00000000000E+00 0. -1.
       21   -1    0    0  502  503  0.00000000000E+00  0.00000000000E+00 -0.62922804490E+03  0.62922804490E+03  0.00000000000E+00 0. -1.
       -6    2    1    2    0  503  0.19704975922E+02  0.58743974706E+02 -0.43930899594E+03  0.47614549938E+03  0.17286700676E+03 0.  0.
      -24    2    3    3    0    0  0.38700854560E+02  0.18870226747E+02 -0.41624467665E+03  0.42609740247E+03  0.80284020539E+02 0.  0.
        6    2    1    2  501    0 -0.19704975922E+02 -0.58743974706E+02 -0.12233815323E+03  0.22066344125E+03  0.17287738409E+03 0.  0.
       24    2    5    5    0    0 -0.63360852700E+02 -0.55128867666E+02 -0.13129696766E+03  0.17570507239E+03  0.81114666014E+02 0.  0.
        5    1    5    5  501    0  0.43655876778E+02 -0.36151070404E+01  0.89588144352E+01  0.44958368859E+02  0.46999998093E+01 0. -1.
       -5    1    3    3    0  503 -0.18995878638E+02  0.39873747959E+02 -0.23064319288E+02  0.50048096906E+02  0.46999998093E+01 0.  1.
       13    1    4    4    0    0 -0.18165404990E+02  0.30650817585E+01 -0.28834427659E+02  0.34216967766E+02  0.00000000000E+00 0. -1.
      -13    1    6    6    0    0 -0.32007829078E+02 -0.71025594852E+01 -0.39420375814E+00  0.32788761339E+02  0.00000000000E+00 0.  1.
       14    1    6    6    0    0 -0.31353023622E+02 -0.48026308181E+02 -0.13090276391E+03  0.14291631106E+03  0.00000000000E+00 0. -1.
      -14    1    4    4    0    0  0.56866259551E+02  0.15805144989E+02 -0.38741024899E+03  0.39188043471E+03  0.00000000000E+00 0.  1.
</event>
<event>
12   0  0.9284400E-04  0.2352365E+03  0.7546771E-02  0.1123150E+00
       21   -1    0    0  501  502  0.00000000000E+00  0.00000000000E+00  0.12005003483E+03  0.12005003483E+03  0.00000000000E+00 0.  1.
       21   -1    0    0  502  503  0.00000000000E+00  0.00000000000E+00 -0.56759898346E+03  0.56759898346E+03  0.00000000000E+00 0.  1.
       -6    2    1    2    0  503 -0.15393904965E+03  0.36171959092E+02 -0.37363229144E+03  0.44107273373E+03  0.17302723949E+03 0.  0.
      -24    2    3    3    0    0 -0.11566231354E+03  0.70502538133E+01 -0.12777142472E+03  0.19050769621E+03  0.80871308196E+02 0.  0.
        6    2    1    2  501    0  0.15393904965E+03 -0.36171959092E+02 -0.73916657198E+02  0.24657628456E+03  0.17415668309E+03 0.  0.
       24    2    5    5    0    0  0.10443923319E+03  0.22785402515E+02  0.85691202857E+01  0.13365066390E+03  0.79764291139E+02 0.  0.
        5    1    5    5  501    0  0.49499816459E+02 -0.58957361607E+02 -0.82485777483E+02  0.11292562066E+03  0.46999998093E+01 0. -1.
       -5    1    3    3    0  503 -0.38276736106E+02  0.29121705278E+02 -0.24586086672E+03  0.25056503752E+03  0.46999998093E+01 0.  1.
       13    1    4    4    0    0 -0.30036462215E+02 -0.12860956522E+02  0.31328830362E+01  0.32823897105E+02  0.00000000000E+00 0. -1.
      -13    1    6    6    0    0  0.10730585899E+03 -0.29905945286E+01  0.88768897805E+01  0.10771392761E+03  0.00000000000E+00 0.  1.
       14    1    6    6    0    0 -0.28666258027E+01  0.25775997044E+02 -0.30776949481E+00  0.25936736286E+02  0.00000000000E+00 0. -1.
      -14    1    4    4    0    0 -0.85625851325E+02  0.19911210335E+02 -0.13090430776E+03  0.15768379911E+03  0.00000000000E+00 0.  1.
</event>
<event>
12   0  0.9284400E-04  0.1927679E+03  0.7546771E-02  0.1155988E+00
        2   -1    0    0  502    0  0.00000000000E+00  0.00000000000E+00  0.44732402086E+03  0.44732402086E+03  0.00000000000E+00 0. -1.
       -2   -1    0    0    0  501  0.00000000000E+00  0.00000000000E+00 -0.93370295869E+02  0.93370295869E+02  0.00000000000E+00 0.  1.
        6    2    1    2  502    0  0.77323877230E+02  0.17971166808E+02  0.85298325751E+02  0.20862982517E+03  0.17305679630E+03 0.  0.
       24    2    3    3    0    0  0.10740099031E+03  0.20730287068E+02  0.21265534841E+02  0.13767537650E+03  0.80855233601E+02 0.  0.
       -6    2    1    2    0  501 -0.77323877230E+02 -0.17971166808E+02  0.26865539924E+03  0.33206449156E+03  0.17829514348E+03 0.  0.
      -24    2    5    5    0    0  0.10465299790E+02  0.16923991080E+02  0.16993036265E+03  0.19534092193E+03  0.94264540817E+02 0.  0.
        5    1    3    3  502    0 -0.30077113079E+02 -0.27591202603E+01  0.64032790910E+02  0.70954448668E+02  0.46999998093E+01 0. -1.
       -5    1    5    5    0  501 -0.87789177021E+02 -0.34895157887E+02  0.98725036591E+02  0.13672356964E+03  0.46999998093E+01 0.  1.
       13    1    6    6    0    0 -0.24918924148E+02 -0.17700499795E+02  0.12433482303E+03  0.12803674743E+03  0.00000000000E+00 0. -1.
      -13    1    4    4    0    0  0.56478876245E+02  0.17637042350E+02 -0.29142787917E+02  0.65956279552E+02  0.00000000000E+00 0.  1.
       14    1    4    4    0    0  0.50922114064E+02  0.30932447183E+01  0.50408322758E+02  0.71719096947E+02  0.00000000000E+00 0. -1.
      -14    1    6    6    0    0  0.35384223939E+02  0.34624490874E+02  0.45595539620E+02  0.67304174501E+02  0.00000000000E+00 0.  1.
</event>
<event>
12   0  0.9284400E-04  0.1931583E+03  0.7546771E-02  0.1156901E+00
       21   -1    0    0  503  502  0.00000000000E+00  0.00000000000E+00  0.22418786120E+03  0.22418786120E+03  0.00000000000E+00 0.  1.
       21   -1    0    0  501  503  0.00000000000E+00  0.00000000000E+00 -0.17763845305E+03  0.17763845305E+03  0.00000000000E+00 0.  1.
        6    2    1    2  501    0 -0.60397157359E+02 -0.59548520692E+02 -0.37353382360E+02  0.19123240115E+03  0.16727436487E+03 0.  0.
       24    2    3    3    0    0  0.60287521044E+01  0.13025184736E+02 -0.32661874338E+02  0.92624873986E+02  0.85478464868E+02 0.  0.
       -6    2    1    2    0  502  0.60397157359E+02  0.59548520692E+02  0.83902790507E+02  0.21059391310E+03  0.17354041329E+03 0.  0.
      -24    2    5    5    0    0  0.15197517759E+02  0.62108082769E+02  0.11450429297E+03  0.15574775800E+03  0.84010431025E+02 0.  0.
        5    1    3    3  501    0 -0.66425909463E+02 -0.72573705428E+02 -0.46915080214E+01  0.98607527163E+02  0.46999998093E+01 0. -1.
       -5    1    5    5    0  502  0.45199639600E+02 -0.25595620774E+01 -0.30601502466E+02  0.54846155101E+02  0.46999998093E+01 0.  1.
       13    1    6    6    0    0 -0.17673725092E+02  0.25082533189E+02 -0.33960081344E+00  0.30685653953E+02  0.00000000000E+00 0. -1.
      -13    1    4    4    0    0 -0.72621654239E+01  0.18453372882E+02 -0.59210428302E+02  0.62443100796E+02  0.00000000000E+00 0.  1.
       14    1    4    4    0    0  0.13290917528E+02 -0.54281881464E+01  0.26548553964E+02  0.30181773189E+02  0.00000000000E+00 0. -1.
      -14    1    6    6    0    0  0.32871242851E+02  0.37025549581E+02  0.11484389379E+03  0.12506210405E+03  0.00000000000E+00 0.  1.
</event>
<event>
12   0  0.9284400E-04  0.2197506E+03  0.7546771E-02  0.1134296E+00
       21   -1    0    0  501  502  0.00000000000E+00  0.00000000000E+00  0.94296963098E+03  0.94296963098E+03  0.00000000000E+00 0. -1.
       21   -1    0    0  502  503  0.00000000000E+00  0.00000000000E+00 -0.51222580314E+02  0.51222580314E+02  0.00000000000E+00 0. -1.
        6    2    1    2  501    0  0.56418479781E+01 -0.13483072250E+03  0.48474532035E+03  0.53222959198E+03  0.17343344198E+03 0.  0.
       24    2    3    3    0    0 -0.33577896826E+01 -0.59182696325E+02  0.41724429823E+03  0.43033702441E+03  0.87082052508E+02 0.  0.
       -6    2    1    2    0  503 -0.56418479781E+01  0.13483072250E+03  0.40700173031E+03  0.46196261931E+03  0.17189502316E+03 0.  0.
      -24    2    5    5    0    0 -0.50079728032E+02  0.46744447970E+02  0.12197137636E+03  0.16030335853E+03  0.78275970313E+02 0.  0.
        5    1    3    3  501    0  0.89996376606E+01 -0.75648026174E+02  0.67501022118E+02  0.10189256758E+03  0.46999998093E+01 0. -1.
       -5    1    5    5    0  503  0.44437880053E+02  0.88086274528E+02  0.28503035395E+03  0.30165926079E+03  0.46999998093E+01 0.  1.
       13    1    6    6    0    0  0.10824569316E+02  0.41295085175E+02  0.45517589785E+02  0.62404377574E+02  0.00000000000E+00 0. -1.
      -13    1    4    4    0    0  0.37902380378E+01  0.22519754503E+02  0.10915660736E+03  0.11151981966E+03  0.00000000000E+00 0.  1.
       14    1    4    4    0    0 -0.71480277204E+01 -0.81702450828E+02  0.30808769087E+03  0.31881720474E+03  0.00000000000E+00 0. -1.
      -14    1    6    6    0    0 -0.60904297347E+02  0.54493627952E+01  0.76453786574E+02  0.97898980954E+02  0.00000000000E+00 0.  1.
</event>
<event>
12   0  0.9284400E-04  0.1740709E+03  0.7546771E-02  0.1173668E+00
        1   -1    0    0  502    0  0.00000000000E+00  0.00000000000E+00  0.18156607282E+03  0.18156607282E+03  0.00000000000E+00 0.  1.
       -1   -1    0    0    0  501  0.00000000000E+00  0.00000000000E+00 -0.16692667331E+03  0.16692667331E+03  0.00000000000E+00 0. -1.
        6    2    1    2  502    0  0.17529657018E+02  0.25628926756E+01  0.10030198741E+02  0.17401700095E+03  0.17282203112E+03 0.  0.
       24    2    3    3    0    0 -0.27699668529E+02 -0.50676160806E+02  0.36806626332E+02  0.99055972556E+02  0.71568240486E+02 0.  0.
       -6    2    1    2    0  501 -0.17529657018E+02 -0.25628926756E+01  0.46092007633E+01  0.17447574518E+03  0.17351277656E+03 0.  0.
      -24    2    5    5    0    0 -0.59611127211E+02 -0.47516532866E+02 -0.82853479397E+01  0.11138819265E+03  0.80792172192E+02 0.  0.
        5    1    3    3  502    0  0.45229325548E+02  0.53239053482E+02 -0.26776427591E+02  0.74961028394E+02  0.46999998093E+01 0. -1.
       -5    1    5    5    0  501  0.42081470193E+02  0.44953640191E+02  0.12894548703E+02  0.63087552532E+02  0.46999998093E+01 0.  1.
       13    1    6    6    0    0 -0.21180791200E+02 -0.62767805367E+02 -0.18537696137E+02  0.68790039138E+02  0.00000000000E+00 0. -1.
      -13    1    4    4    0    0  0.21581690446E+02 -0.30547628300E+02  0.23542691490E+02  0.44194855808E+02  0.00000000000E+00 0.  1.
       14    1    4    4    0    0 -0.49281358976E+02 -0.20128532506E+02  0.13263934843E+02  0.54861116748E+02  0.00000000000E+00 0. -1.
      -14    1    6    6    0    0 -0.38430336011E+02  0.15251272501E+02  0.10252348197E+02  0.42598153509E+02  0.00000000000E+00 0.  1.
</event>
<event>
12   0  0.9284400E-04  0.2291481E+03  0.7546771E-02  0.1127370E+00
       21   -1    0    0  503  502  0.00000000000E+00  0.00000000000E+00  0.63371021113E+02  0.63371021113E+02  0.00000000000E+00 0.  1.
       21   -1    0    0  501  503  0.00000000000E+00  0.00000000000E+00 -0.12240478348E+04  0.12240478348E+04  0.00000000000E+00 0. -1.
        6    2    1    2  501    0 -0.50040911611E+02 -0.14037145552E+03 -0.94805889135E+03  0.97535866961E+03  0.17407077455E+03 0.  0.
       24    2    3    3    0    0 -0.39978419125E+02 -0.84483296895E+02 -0.27453062696E+03  0.29942438807E+03  0.74513069869E+02 0.  0.
       -6    2    1    2    0  502  0.50040911611E+02  0.14037145552E+03 -0.21261792238E+03  0.31206018635E+03  0.17310962026E+03 0.  0.
      -24    2    5    5    0    0  0.41845921109E+02  0.74919047332E+02 -0.21549907822E+03  0.24586678287E+03  0.81527157663E+02 0.  0.
        5    1    3    3  501    0 -0.10062492486E+02 -0.55888158628E+02 -0.67352826439E+03  0.67593428154E+03  0.46999998093E+01 0. -1.
       -5    1    5    5    0  502  0.81949905015E+01  0.65452408190E+02  0.28811558420E+01  0.66193403481E+02  0.46999998093E+01 0.  1.
       13    1    6    6    0    0  0.58883821602E+02  0.22325046198E+02 -0.10951097362E+03  0.12632642431E+03  0.00000000000E+00 0. -1.
      -13    1    4    4    0    0 -0.49151918321E+02 -0.20130825179E+02 -0.10092587779E+03  0.11404908595E+03  0.00000000000E+00 0.  1.
       14    1    4    4    0    0  0.91734991960E+01 -0.64352471716E+02 -0.17360474917E+03  0.18537530212E+03  0.00000000000E+00 0. -1.
      -14    1    6    6    0    0 -0.17037900493E+02  0.52594001134E+02 -0.10598810460E+03  0.11954035856E+03  0.00000000000E+00 0.  1.
</event>
<event>
12   0  0.9284400E-04  0.2796828E+03  0.7546771E-02  0.1095955E+00
       21   -1    0    0  501  502  0.00000000000E+00  0.00000000000E+00  0.59515166293E+03  0.59515166293E+03  0.00000000000E+00 0. -1.
       21   -1    0    0  502  503  0.00000000000E+00  0.00000000000E+00 -0.32798320780E+03  0.32798320780E+03  0.00000000000E+00 0. -1.
       -6    2    1    2    0  503  0.10729536755E+03 -0.19095511948E+03 -0.22408016587E+03  0.35784937932E+03  0.17282391036E+03 0.  0.
      -24    2    3    3    0    0  0.32706825978E+02 -0.17736817398E+03 -0.19070747144E+03  0.27488021425E+03  0.81612418874E+02 0.  0.
        6    2    1    2  501    0 -0.10729536755E+03  0.19095511948E+03  0.49124862099E+03  0.56528549141E+03  0.17391470789E+03 0.  0.
       24    2    5    5    0    0 -0.43625553283E+02  0.15546336076E+03  0.44122763252E+03  0.47675470879E+03  0.80877581668E+02 0.  0.
        5    1    5    5  501    0 -0.63669814269E+02  0.35491758720E+02  0.50020988476E+02  0.88530782626E+02  0.46999998093E+01 0. -1.
       -5    1    3    3    0  503  0.74588541573E+02 -0.13586945501E+02 -0.33372694425E+02  0.82969165076E+02  0.46999998093E+01 0.  1.
       13    1    4    4    0    0  0.50395495773E+02 -0.10313950404E+03 -0.78055755286E+02  0.13881701705E+03  0.00000000000E+00 0. -1.
      -13    1    6    6    0    0  0.82153060145E+01  0.91313872792E+02  0.29442172885E+03  0.30836645252E+03  0.00000000000E+00 0.  1.
       14    1    6    6    0    0 -0.51840859297E+02  0.64149487966E+02  0.14680590367E+03  0.16838825627E+03  0.00000000000E+00 0. -1.
      -14    1    4    4    0    0 -0.17688669794E+02 -0.74228669936E+02 -0.11265171616E+03  0.13606319720E+03  0.00000000000E+00 0.  1.
</event>
<event>
11   0  0.9284400E-04  0.2206500E+03  0.7546771E-02  0.1137115E+00
       21   -1    0    0  503  502  0.00000000000E+00  0.00000000000E+00  0.66929518502E+03  0.66929518502E+03  0.00000000000E+00 0.  1.
       21   -1    0    0  501  503  0.00000000000E+00  0.00000000000E+00 -0.66744590864E+02  0.66744590864E+02  0.00000000000E+00 0. -1.
        6    2    1    2  501    0  0.24105161247E+02 -0.98346787205E+02  0.30530561119E+03  0.36584927340E+03  0.17430153547E+03 0.  0.
       24    2    3    3    0    0 -0.13178072823E+02 -0.36012504481E+02  0.27150416504E+03  0.28559822913E+03  0.79882881570E+02 0.  0.
      -24    2    1    2    0    0 -0.77980898518E+02  0.40827850195E+02  0.90202831103E+02  0.14860628413E+03  0.78735907040E+02 0.  0.
        5    1    3    3  501    0  0.37283234070E+02 -0.62334282725E+02  0.33801446156E+02  0.80251044267E+02  0.46999998093E+01 0. -1.
       -5    1    1    2    0  502  0.53875737271E+02  0.57518937010E+02  0.20704215186E+03  0.22158421836E+03  0.46999998093E+01 0.  1.
       13    1    5    5    0    0 -0.57765208731E+02  0.28539634018E+02  0.10316386941E+03  0.12163105689E+03  0.00000000000E+00 0. -1.
      -13    1    4    4    0    0 -0.14060408642E+01 -0.51681910716E+02  0.96296538474E+02  0.10929785070E+03  0.00000000000E+00 0.  1.
       14    1    4    4    0    0 -0.11772031959E+02  0.15669406235E+02  0.17520762656E+03  0.17630037843E+03  0.00000000000E+00 0. -1.
      -14    1    5    5    0    0 -0.20215689788E+02  0.12288216177E+02 -0.12961038304E+02  0.26975227234E+02  0.00000000000E+00 0.  1.
</event>
<event>
12   0  0.9284400E-04  0.2421889E+03  0.7546771E-02  0.1118356E+00
       21   -1    0    0  503  502  0.00000000000E+00  0.00000000000E+00  0.20164646417E+03  0.20164646417E+03  0.00000000000E+00 0. -1.
       21   -1    0    0  501  503  0.00000000000E+00  0.00000000000E+00 -0.29123327246E+03  0.29123327246E+03  0.00000000000E+00 0. -1.
        6    2    1    2  501    0 -0.15819279999E+03 -0.60098517241E+02 -0.54429469137E+02  0.24822980163E+03  0.17325897831E+03 0.  0.
       24    2    3    3    0    0 -0.91746775187E+02 -0.58134846045E+02  0.31963137966E+02  0.13912112747E+03  0.80845005030E+02 0.  0.
       -6    2    1    2    0  502  0.15819279999E+03  0.60098517241E+02 -0.35157339162E+02  0.24464993500E+03  0.17314952629E+03 0.  0.
      -24    2    5    5    0    0  0.14806259603E+03 -0.58931271686E+01  0.13598670128E+01  0.16840615158E+03  0.80009507941E+02 0.  0.
        5    1    3    3  501    0 -0.66446024804E+02 -0.19636711959E+01 -0.86392607102E+02  0.10910867416E+03  0.46999998093E+01 0. -1.
       -5    1    5    5    0  502  0.10130203957E+02  0.65991644410E+02 -0.36517206175E+02  0.76243783413E+02  0.46999998093E+01 0.  1.
       13    1    6    6    0    0  0.14892463710E+03 -0.69150753708E+01 -0.16951786059E+02  0.15004575586E+03  0.00000000000E+00 0. -1.
      -13    1    4    4    0    0 -0.66449284290E+02 -0.77799132768E+02  0.16842876801E+02  0.10369134458E+03  0.00000000000E+00 0.  1.
       14    1    4    4    0    0 -0.25297490897E+02  0.19664286722E+02  0.15120261165E+02  0.35429782891E+02  0.00000000000E+00 0. -1.
      -14    1    6    6    0    0 -0.86204106057E+00  0.10219482022E+01  0.18311653071E+02  0.18360395724E+02  0.00000000000E+00 0.  1.
</event>
<event>
11   0  0.9284400E-04  0.2542162E+03  0.7546771E-02  0.1116980E+00
       21   -1    0    0  503  502  0.00000000000E+00  0.00000000000E+00  0.38315297310E+03  0.38315297310E+03  0.00000000000E+00 0.  1.
       21   -1    0    0  501  503  0.00000000000E+00  0.00000000000E+00 -0.14970767249E+03  0.14970767249E+03  0.00000000000E+00 0.  1.
        6    2    1    2  501    0 -0.12536030567E+03 -0.36124301775E+02  0.59169147724E+02  0.22464309780E+03  0.17304150349E+03 0.  0.
       24    2    3    3    0    0 -0.12033336481E+03 -0.60538856883E+02  0.92900464392E+02  0.18243844927E+03  0.80673537218E+02 0.  0.
      -24    2    1    2    0    0  0.89569246835E+02 -0.71393381285E+02  0.84302375198E+02  0.16344730660E+03  0.80551019238E+02 0.  0.
        5    1    3    3  501    0 -0.50269408614E+01  0.24414555108E+02 -0.33731316667E+02  0.42204648534E+02  0.46999998093E+01 0. -1.
       -5    1    1    2    0  502  0.35791058836E+02  0.10751768306E+03  0.89973777695E+02  0.14477024119E+03  0.46999998093E+01 0.  1.
       13    1    5    5    0    0  0.39590673353E+02 -0.37950718195E+02 -0.57704276104E+01  0.55145047492E+02  0.00000000000E+00 0. -1.
      -13    1    4    4    0    0 -0.29185638569E+02 -0.29435242529E+02  0.73220612971E+02  0.84139724062E+02  0.00000000000E+00 0.  1.
       14    1    4    4    0    0 -0.91147726240E+02 -0.31103614353E+02  0.19679851421E+02  0.98298725203E+02  0.00000000000E+00 0. -1.
      -14    1    5    5    0    0  0.49978573482E+02 -0.33442663090E+02  0.90072802808E+02  0.10830225911E+03  0.00000000000E+00 0.  1.
</event>
<event>
12   0  0.9284400E-04  0.1775954E+03  0.7546771E-02  0.1170716E+00
       21   -1    0    0  503  502  0.00000000000E+00  0.00000000000E+00  0.57668659870E+03  0.57668659870E+03  0.00000000000E+00 0.  1.
       21   -1    0    0  501  503  0.00000000000E+00  0.00000000000E+00 -0.19228870147E+03  0.19228870147E+03  0.00000000000E+00 0.  1.
        6    2    1    2  501    0 -0.25244204882E+02 -0.19301123882E+02 -0.13421894440E+03  0.22079326787E+03  0.17240979913E+03 0.  0.
       24    2    3    3    0    0 -0.71128295891E+02 -0.45222283395E+02 -0.66950923567E+02  0.13521095110E+03  0.81824725724E+02 0.  0.
       -6    2    1    2    0  502  0.25244204882E+02  0.19301123882E+02  0.51861684163E+03  0.54818203230E+03  0.17472924440E+03 0.  0.
      -24    2    5    5    0    0  0.43157599917E+02  0.67604682596E+02  0.44181661889E+03  0.45558350252E+03  0.76950838191E+02 0.  0.
        5    1    3    3  501    0  0.45884091009E+02  0.25921159513E+02 -0.67268020835E+02  0.85582316769E+02  0.46999998093E+01 0. -1.
       -5    1    5    5    0  502 -0.17913395035E+02 -0.48303558715E+02  0.76800222739E+02  0.92598529779E+02  0.46999998093E+01 0.  1.
       13    1    6    6    0    0  0.16121042242E+02 -0.71436686774E+01  0.21448196466E+02  0.27765898811E+02  0.00000000000E+00 0. -1.
      -13    1    4    4    0    0  0.16949277995E+02 -0.10533711198E+02 -0.24133084512E+02  0.31315217774E+02  0.00000000000E+00 0.  1.
       14    1    4    4    0    0 -0.88077573885E+02 -0.34688572197E+02 -0.42817839054E+02  0.10389573333E+03  0.00000000000E+00 0. -1.
      -14    1    6    6    0    0  0.27036557675E+02  0.74748351274E+02  0.42036842243E+03  0.42781760371E+03  0.00000000000E+00 0.  1.
</event>
<event>
12   0  0.9284400E-04  0.2611175E+03  0.7546771E-02  0.1106478E+00
       21   -1    0    0  503  502  0.00000000000E+00  0.00000000000E+00  0.19098998828E+03  0.19098998828E+03  0.00000000000E+00 0.  1.
       21   -1    0    0  501  503  0.00000000000E+00  0.00000000000E+00 -0.58365243186E+03  0.58365243186E+03  0.00000000000E+00 0. -1.
        6    2    1    2  501    0 -0.18215068307E+03  0.69176853360E+02  0.45063088649E+02  0.26495035063E+03  0.17379211132E+03 0.  0.
       24    2    3    3    0    0 -0.26803645487E+02  0.21643600484E+02 -0.96133883900E+01  0.93475223122E+02  0.86361561172E+02 0.  0.
       -6    2    1    2    0  502  0.18215068307E+03 -0.69176853360E+02 -0.43772553223E+03  0.50969206951E+03  0.17383341385E+03 0.  0.
      -24    2    5    5    0    0  0.89955272958E+02 -0.99178920469E+02 -0.20606167130E+03  0.25851414027E+03  0.80247984046E+02 0.  0.
        5    1    3    3  501    0 -0.15534703759E+03  0.47533252876E+02  0.54676477039E+02  0.17147512751E+03  0.46999998093E+01 0. -1.
       -5    1    5    5    0  502  0.92195410115E+02  0.30002067110E+02 -0.23166386093E+03  0.25117792924E+03  0.46999998093E+01 0.  1.
       13    1    6    6    0    0  0.55245805448E+02 -0.65806913415E+02 -0.18867967492E+03  0.20732261961E+03  0.00000000000E+00 0. -1.
      -13    1    4    4    0    0 -0.42603835912E+02  0.41179433247E+02  0.11855451353E+02  0.60426685195E+02  0.00000000000E+00 0.  1.
       14    1    4    4    0    0  0.15800190425E+02 -0.19535832762E+02 -0.21468839743E+02  0.33048537927E+02  0.00000000000E+00 0. -1.
      -14    1    6    6    0    0  0.34709467510E+02 -0.33372007054E+02 -0.17381996376E+02  0.51191520662E+02  0.00000000000E+00 0.  1.
</event>
<event>
12   0  0.9284400E-04  0.1985750E+03  0.7546771E-02  0.1152335E+00
       21   -1    0    0  501  502  0.00000000000E+00  0.00000000000E+00  0.10666736434E+03  0.10666736434E+03  0.00000000000E+00 0. -1.
       21   -1    0    0  502  503  0.00000000000E+00  0.00000000000E+00 -0.49288226211E+03  0.49288226211E+03  0.00000000000E+00 0. -1.
       -6    2    1    2    0  503  0.37824245490E+02  0.85473804440E+02 -0.34770637131E+03  0.39727525590E+03  0.16790313727E+03 0.  0.
      -24    2    3    3    0    0 -0.35335834191E+02  0.24935634694E+02 -0.12415897599E+03  0.15434976277E+03  0.80857843742E+02 0.  0.
        6    2    1    2  501    0 -0.37824245490E+02 -0.85473804440E+02 -0.38508526468E+02  0.20227437055E+03  0.17520151135E+03 0.  0.
       24    2    5    5    0    0 -0.19244371664E+02 -0.39872762288E+02 -0.91329184976E+02  0.12990877984E+03  0.81086916557E+02 0.  0.
        5    1    5    5  501    0 -0.18579873826E+02 -0.45601042152E+02  0.52820658507E+02  0.72365590719E+02  0.46999998093E+01 0. -1.
       -5    1    3    3    0  503  0.73160079680E+02  0.60538169746E+02 -0.22354739532E+03  0.24292549312E+03  0.46999998093E+01 0.  1.
       13    1    4    4    0    0  0.12975143718E+01  0.39071867850E+02 -0.10206214559E+03  0.10929307372E+03  0.00000000000E+00 0. -1.
      -13    1    6    6    0    0  0.20725232883E+02 -0.44607587304E+02 -0.33733798677E+02  0.59643451411E+02  0.00000000000E+00 0.  1.
       14    1    6    6    0    0 -0.39969604547E+02  0.47348250157E+01 -0.57595386299E+02  0.70265328424E+02  0.00000000000E+00 0. -1.
      -14    1    4    4    0    0 -0.36633348562E+02 -0.14136233155E+02 -0.22096830394E+02  0.45056689050E+02  0.00000000000E+00 0.  1.
</event>
<event>
12   0  0.9284400E-04  0.1852658E+03  0.7546771E-02  0.1163021E+00
       21   -1    0    0  501  502  0.00000000000E+00  0.00000000000E+00  0.14743500333E+03  0.14743500333E+03  0.00000000000E+00 0.  1.
       21   -1    0    0  502  503  0.00000000000E+00  0.00000000000E+00 -0.47654954314E+03  0.47654954314E+03  0.00000000000E+00 0.  1.
       -6    2    1    2    0  503  0.56279496786E+02  0.34035122162E+02 -0.38842891074E+03  0.43034918440E+03  0.17319824049E+03 0.  0.
      -24    2    3    3    0    0  0.45279365077E+02  0.79968554587E+02 -0.19194062016E+03  0.22820908089E+03  0.82419611178E+02 0.  0.
        6    2    1    2  501    0 -0.56279496786E+02 -0.34035122162E+02  0.59314370940E+02  0.19363536207E+03  0.17219375002E+03 0.  0.
       24    2    5    5    0    0 -0.56245408310E+02 -0.47926072658E+02 -0.19698327713E+02  0.11327332990E+03  0.83560569384E+02 0.  0.
        5    1    5    5  501    0 -0.34088476588E-01  0.13890950496E+02  0.79012698653E+02  0.80362032169E+02  0.46999998093E+01 0. -1.
       -5    1    3    3    0  503  0.11000131709E+02 -0.45933432425E+02 -0.19648829058E+03  0.20214010351E+03  0.46999998093E+01 0.  1.
       13    1    4    4    0    0  0.46384708855E+02  0.95578367331E+01 -0.45298118790E+02  0.65534822991E+02  0.00000000000E+00 0. -1.
      -13    1    6    6    0    0 -0.34977181633E+02 -0.29644024008E+02  0.30992139990E+02  0.55341522707E+02  0.00000000000E+00 0.  1.
       14    1    6    6    0    0 -0.21268226677E+02 -0.18282048650E+02 -0.50690467703E+02  0.57931807194E+02  0.00000000000E+00 0. -1.
      -14    1    4    4    0    0 -0.11053437772E+01  0.70410717854E+02 -0.14664250137E+03  0.16267425790E+03  0.00000000000E+00 0.  1.
</event>
<event>
12   0  0.9284400E-04  0.2699436E+03  0.7546771E-02  0.1101408E+00
       21   -1    0    0  501  502  0.00000000000E+00  0.00000000000E+00  0.10190287364E+03  0.10190287364E+03  0.00000000000E+00 0. -1.
       21   -1    0    0  502  503  0.00000000000E+00  0.00000000000E+00 -0.73857445641E+03  0.73857445641E+03  0.00000000000E+00 0. -1.
       -6    2    1    2    0  503 -0.19569253866E+03  0.65180601339E+02 -0.24022536675E+03  0.36085335932E+03  0.17309777474E+03 0.  0.
      -24    2    3    3    0    0 -0.20245622384E+03  0.94724934718E+02 -0.20258223070E+03  0.31229709543E+03  0.80799627413E+02 0.  0.
        6    2    1    2  501    0  0.19569253866E+03 -0.65180601339E+02 -0.39644621602E+03  0.47962397074E+03  0.17414209896E+03 0.  0.
       24    2    5    5    0    0  0.99709861934E+02  0.33908671526E+02 -0.17908785536E+03  0.22213978641E+03  0.78624234171E+02 0.  0.
        5    1    5    5  501    0  0.95982676727E+02 -0.99089272865E+02 -0.21735836067E+03  0.25748418433E+03  0.46999998093E+01 0. -1.
       -5    1    3    3    0  503  0.67636851833E+01 -0.29544333379E+02 -0.37643136053E+02  0.48556263882E+02  0.46999998093E+01 0.  1.
       13    1    4    4    0    0 -0.13373136736E+03  0.33823072590E+02 -0.81107940767E+02  0.16002055153E+03  0.00000000000E+00 0. -1.
      -13    1    6    6    0    0 -0.18078610085E+01  0.28301692533E+02 -0.53532718428E+02  0.60580575303E+02  0.00000000000E+00 0.  1.
       14    1    6    6    0    0  0.10151772294E+03  0.56069789924E+01 -0.12555513693E+03  0.16155921111E+03  0.00000000000E+00 0. -1.
      -14    1    4    4    0    0 -0.68724856484E+02  0.60901862128E+02 -0.12147428993E+03  0.15227654391E+03  0.00000000000E+00 0.  1.
</event>
<event>
12   0  0.9284400E-04  0.2328767E+03  0.7546771E-02  0.1124954E+00
       21   -1    0    0  503  502  0.00000000000E+00  0.00000000000E+00  0.15699587157E+03  0.15699587157E+03  0.00000000000E+00 0.  1.
       21   -1    0    0  501  503  0.00000000000E+00  0.00000000000E+00 -0.39492404549E+03  0.39492404549E+03  0.00000000000E+00 0.  1.
        6    2    1    2  501    0 -0.63632300509E+02 -0.14155780620E+03 -0.21891752819E+03  0.31826853991E+03  0.17112070940E+03 0.  0.
       24    2    3    3    0    0  0.23336894106E+01 -0.96316003277E+02 -0.55620175599E+02  0.13637173422E+03  0.78876025306E+02 0.  0.
       -6    2    1    2    0  502  0.63632300509E+02  0.14155780620E+03 -0.19010645729E+02  0.23365137715E+03  0.17361992752E+03 0.  0.
      -24    2    5    5    0    0  0.40918096893E+02  0.87574940080E+02 -0.80921027618E+02  0.14829875409E+03  0.78106638452E+02 0.  0.
        5    1    3    3  501    0 -0.65965989920E+02 -0.45241802920E+02 -0.16329735259E+03  0.18189680569E+03  0.46999998093E+01 0. -1.
       -5    1    5    5    0  502  0.22714203616E+02  0.53982866116E+02  0.61910381889E+02  0.85352623064E+02  0.46999998093E+01 0.  1.
       13    1    6    6    0    0  0.21767939624E+01  0.58298847802E+02 -0.55008399015E+01  0.58598236548E+02  0.00000000000E+00 0. -1.
      -13    1    4    4    0    0 -0.28976007290E+02 -0.67744539771E+02 -0.58217926567E+02  0.93905583652E+02  0.00000000000E+00 0.  1.
       14    1    4    4    0    0  0.31309696701E+02 -0.28571463506E+02  0.25977509675E+01  0.42466150572E+02  0.00000000000E+00 0. -1.
      -14    1    6    6    0    0  0.38741302931E+02  0.29276092279E+02 -0.75420187717E+02  0.89700517541E+02  0.00000000000E+00 0.  1.
</event>
<event>
12   0  0.9284400E-04  0.1743185E+03  0.7546771E-02  0.1173617E+00
       21   -1    0    0  501  502  0.00000000000E+00  0.00000000000E+00  0.14620076008E+04  0.14620076008E+04  0.00000000000E+00 0. -1.
       21   -1    0    0  502  503  0.00000000000E+00  0.00000000000E+00 -0.28879098598E+02  0.28879098598E+02  0.00000000000E+00 0. -1.
       -6    2    1    2    0  503  0.62984999436E+01  0.94440803152E+01  0.31846329645E+03  0.36267331263E+03  0.17315946048E+03 0.  0.
      -24    2    3    3    0    0 -0.60248638296E+02  0.25192729027E+02  0.20053843824E+03  0.22627351891E+03  0.81972362036E+02 0.  0.
        6    2    1    2  501    0 -0.62984999436E+01 -0.94440803152E+01  0.11146652057E+04  0.11282133867E+04  0.17394845044E+03 0.  0.
       24    2    5    5    0    0  0.29939336807E+02 -0.51980076525E+02  0.43110371644E+03  0.44235560891E+03  0.78928943718E+02 0.  0.
        5    1    5    5  501    0 -0.36237836751E+02  0.42535996210E+02  0.68356148928E+03  0.68585777783E+03  0.46999998093E+01 0. -1.
       -5    1    3    3    0  503  0.66547138240E+02 -0.15748648712E+02  0.11792485821E+03  0.13639979372E+03  0.46999998093E+01 0.  1.
       13    1    4    4    0    0 -0.57146467093E+02 -0.27022712350E+01  0.59781926692E+02  0.82745995250E+02  0.00000000000E+00 0. -1.
      -13    1    6    6    0    0 -0.26390268623E+02 -0.77839385074E+01  0.12408172559E+03  0.12709567499E+03  0.00000000000E+00 0.  1.
       14    1    6    6    0    0  0.56329605431E+02 -0.44196138018E+02  0.30702199086E+03  0.31525993392E+03  0.00000000000E+00 0. -1.
      -14    1    4    4    0    0 -0.31021712036E+01  0.27895000262E+02  0.14075651155E+03  0.14352752366E+03  0.00000000000E+00 0.  1.
</event>
<event>
12   0  0.9284400E-04  0.1819137E+03  0.7546771E-02  0.1166047E+00
       21   -1    0    0  503  502  0.00000000000E+00  0.00000000000E+00  0.13128525954E+03  0.13128525954E+03  0.00000000000E+00 0.  1.
       21   -1    0    0  501  503  0.00000000000E+00  0.00000000000E+00 -0.30799597618E+03  0.30799597618E+03  0.00000000000E+00 0.  1.
        6    2    1    2  501    0  0.37120400190E+02  0.36803486671E+02 -0.18228531475E+03  0.25728213115E+03  0.17387851590E+03 0.  0.
       24    2    3    3    0    0 -0.29851369626E+02  0.87003198333E+01 -0.15714292303E+03  0.18028060000E+03  0.82706690448E+02 0.  0.
       -6    2    1    2    0  502 -0.37120400190E+02 -0.36803486671E+02  0.55745981113E+01  0.18199910457E+03  0.17424172055E+03 0.  0.
      -24    2    5    5    0    0 -0.81486410548E+02 -0.13324393574E+02  0.39230612948E+02  0.12138204409E+03  0.79856027125E+02 0.  0.
        5    1    3    3  501    0  0.66971769816E+02  0.28103166837E+02 -0.25142391722E+02  0.77001531142E+02  0.46999998093E+01 0. -1.
       -5    1    5    5    0  502  0.44366010358E+02 -0.23479093097E+02 -0.33656014836E+02  0.60617060475E+02  0.46999998093E+01 0.  1.
       13    1    6    6    0    0 -0.30409298700E+02  0.10762268340E+02 -0.21256158773E+02  0.38631284642E+02  0.00000000000E+00 0. -1.
      -13    1    4    4    0    0 -0.29119689409E+01 -0.35450296670E+02 -0.78121541212E+02  0.85838093516E+02  0.00000000000E+00 0.  1.
       14    1    4    4    0    0 -0.26939400685E+02  0.44150616504E+02 -0.79021381821E+02  0.94442506488E+02  0.00000000000E+00 0. -1.
      -14    1    6    6    0    0 -0.51077111847E+02 -0.24086661914E+02  0.60486771721E+02  0.82750759453E+02  0.00000000000E+00 0.  1.
</event>
<event>
12   0  0.9284400E-04  0.2107337E+03  0.7546771E-02  0.1141243E+00
       21   -1    0    0  501  502  0.00000000000E+00  0.00000000000E+00  0.35386842542E+03  0.35386842542E+03  0.00000000000E+00 0.  1.
       21   -1    0    0  502  503  0.00000000000E+00  0.00000000000E+00 -0.14773357913E+03  0.14773357913E+03  0.00000000000E+00 0.  1.
       -6    2    1    2    0  503  0.56565302696E+02  0.10591081804E+03  0.43538299368E+01  0.21077863803E+03  0.17318182228E+03 0.  0.
      -24    2    3    3    0    0  0.10516338317E+03  0.81478705867E+02  0.13520686705E+02  0.15541779634E+03  0.79207106883E+02 0.  0.
        6    2    1    2  501    0 -0.56565302696E+02 -0.10591081804E+03  0.20178101636E+03  0.29082336652E+03  0.17159812675E+03 0.  0.
       24    2    5    5    0    0 -0.27227551252E+02 -0.10446830186E+03  0.61352855885E+02  0.14727914767E+03  0.79196014879E+02 0.  0.
        5    1    5    5  501    0 -0.29337751444E+02 -0.14425161756E+01  0.14042816047E+03  0.14354421885E+03  0.46999998093E+01 0. -1.
       -5    1    3    3    0  503 -0.48598080477E+02  0.24432112173E+02 -0.91668567680E+01  0.55360841689E+02  0.46999998093E+01 0.  1.
       13    1    4    4    0    0  0.25455292875E+02  0.11663393097E+02  0.37478477215E+02  0.46782934156E+02  0.00000000000E+00 0. -1.
      -13    1    6    6    0    0 -0.44925508750E+02 -0.10693521227E+03  0.52028610628E+02  0.12712362991E+03  0.00000000000E+00 0.  1.
       14    1    6    6    0    0  0.17697957498E+02  0.24669104016E+01  0.93242452573E+01  0.20155517759E+02  0.00000000000E+00 0. -1.
      -14    1    4    4    0    0  0.79708090298E+02  0.69815312770E+02 -0.23957790510E+02  0.10863486219E+03  0.00000000000E+00 0.  1.
</event>
<event>
12   0  0.9284400E-04  0.1793799E+03  0.7546771E-02  0.1168405E+00
       -2   -1    0    0    0  501  0.00000000000E+00  0.00000000000E+00  0.58147754045E+03  0.58147754045E+03  0.00000000000E+00 0.  1.
        2   -1    0    0  502    0  0.00000000000E+00  0.00000000000E+00 -0.55397111133E+02  0.55397111133E+02  0.00000000000E+00 0. -1.
        6    2    1    2  502    0  0.32704334783E+02 -0.23561394946E+02  0.25370297208E+03  0.31113984597E+03  0.17555082702E+03 0.  0.
       24    2    3    3    0    0  0.46763816609E+02  0.48782535393E+02  0.11214941327E+03  0.15148141903E+03  0.76174399314E+02 0.  0.
       -6    2    1    2    0  501 -0.32704334783E+02  0.23561394946E+02  0.27237745724E+03  0.32573480561E+03  0.17403727051E+03 0.  0.
      -24    2    5    5    0    0 -0.48731655993E+02 -0.45619805055E+02  0.19091457469E+03  0.21756269880E+03  0.80182368221E+02 0.  0.
        5    1    3    3  502    0 -0.14059481826E+02 -0.72343930338E+02  0.14155355881E+03  0.15965842695E+03  0.46999998093E+01 0. -1.
       -5    1    5    5    0  501  0.16027321211E+02  0.69181200000E+02  0.81462882558E+02  0.10817210681E+03  0.46999998093E+01 0.  1.
       13    1    6    6    0    0 -0.27431501796E+02  0.87417920179E+01  0.15523820358E+02  0.32709252773E+02  0.00000000000E+00 0. -1.
      -13    1    4    4    0    0  0.46619091866E+02  0.35264114675E+02  0.12164495398E+03  0.13496070665E+03  0.00000000000E+00 0.  1.
       14    1    4    4    0    0  0.14472474201E+00  0.13518420718E+02 -0.94955407143E+01  0.16520712376E+02  0.00000000000E+00 0. -1.
      -14    1    6    6    0    0 -0.21300154198E+02 -0.54361597072E+02  0.17539075433E+03  0.18485344603E+03  0.00000000000E+00 0.  1.
</event>
<event>
12   0  0.9284400E-04  0.2582375E+03  0.7546771E-02  0.1108378E+00
       21   -1    0    0  501  502  0.00000000000E+00  0.00000000000E+00  0.36639888740E+03  0.36639888740E+03  0.00000000000E+00 0. -1.
       21   -1    0    0  502  503  0.00000000000E+00  0.00000000000E+00 -0.43710163997E+03  0.43710163997E+03  0.00000000000E+00 0.  1.
       -6    2    1    2    0  503  0.18546080437E+03 -0.39412250678E+02 -0.34277534734E+03  0.42916374973E+03  0.17532127618E+03 0.  0.
      -24    2    3    3    0    0  0.48055720635E+02 -0.34284797439E+02 -0.63720219484E+02  0.11803628037E+03  0.79921821123E+02 0.  0.
        6    2    1    2  501    0 -0.18546080437E+03  0.39412250678E+02  0.27207259477E+03  0.37433677763E+03  0.17365336393E+03 0.  0.
       24    2    5    5    0    0 -0.15663626751E+02  0.20895915792E+02  0.11193258166E+03  0.14015554444E+03  0.80204022963E+02 0.  0.
        5    1    5    5  501    0 -0.16979717762E+03  0.18516334886E+02  0.16014001311E+03  0.23418123320E+03  0.46999998093E+01 0. -1.
       -5    1    3    3    0  503  0.13740508373E+03 -0.51274532387E+01 -0.27905512785E+03  0.31112746936E+03  0.46999998093E+01 0.  1.
       13    1    4    4    0    0  0.17589404235E+02 -0.30172095528E+01 -0.71498951159E+02  0.73692541764E+02  0.00000000000E+00 0. -1.
      -13    1    6    6    0    0 -0.28983464395E+02  0.46772647005E+02  0.68305701409E+02  0.87711975016E+02  0.00000000000E+00 0.  1.
       14    1    6    6    0    0  0.13319837645E+02 -0.25876731213E+02  0.43626880253E+02  0.52443569422E+02  0.00000000000E+00 0. -1.
      -14    1    4    4    0    0  0.30466316400E+02 -0.31267587886E+02  0.77787316745E+01  0.44343738608E+02  0.00000000000E+00 0.  1.
</event>
<event>
12   0  0.9284400E-04  0.1942114E+03  0.7546771E-02  0.1154717E+00
       -2   -1    0    0    0  501  0.00000000000E+00  0.00000000000E+00  0.17661188439E+03  0.17661188439E+03  0.00000000000E+00 0.  1.
        2   -1    0    0  502    0  0.00000000000E+00  0.00000000000E+00 -0.21715273246E+03  0.21715273246E+03  0.00000000000E+00 0. -1.
        6    2    1    2  502    0 -0.23061658639E+02 -0.84047845984E+02 -0.45609502146E+02  0.19981038151E+03  0.17391975552E+03 0.  0.
       24    2    3    3    0    0 -0.74013185062E+02 -0.80615528697E+02 -0.69319248391E+01  0.13557733837E+03  0.79726708623E+02 0.  0.
       -6    2    1    2    0  501  0.23061658639E+02  0.84047845984E+02  0.50686540767E+01  0.19395423534E+03  0.17319547811E+03 0.  0.
      -24    2    5    5    0    0  0.51235494180E+02  0.10678493408E+03 -0.27332281233E+02  0.14514183127E+03  0.79315821734E+02 0.  0.
        5    1    3    3  502    0  0.50951526423E+02 -0.34323172875E+01 -0.38677577307E+02  0.64233043143E+02  0.46999998093E+01 0. -1.
       -5    1    5    5    0  501 -0.28173835541E+02 -0.22737088091E+02  0.32400935310E+02  0.48812404070E+02  0.46999998093E+01 0.  1.
       13    1    6    6    0    0 -0.30638557990E+01  0.27186887797E+02 -0.39470531423E+02  0.48025377992E+02  0.00000000000E+00 0. -1.
      -13    1    4    4    0    0 -0.58790601058E+02 -0.53710786279E+02 -0.41006876146E+02  0.89569789699E+02  0.00000000000E+00 0.  1.
       14    1    4    4    0    0 -0.15222584004E+02 -0.26904742418E+02  0.34074951307E+02  0.46007548673E+02  0.00000000000E+00 0. -1.
      -14    1    6    6    0    0  0.54299349979E+02  0.79598046278E+02  0.12138250190E+02  0.97116453277E+02  0.00000000000E+00 0.  1.
</event>
<event>
12   0  0.9284400E-04  0.2105212E+03  0.7546771E-02  0.1141349E+00
       21   -1    0    0  501  502  0.00000000000E+00  0.00000000000E+00  0.17350526342E+03  0.17350526342E+03  0.00000000000E+00 0. -1.
       21   -1    0    0  502  503  0.00000000000E+00  0.00000000000E+00 -0.26264439574E+03  0.26264439574E+03  0.00000000000E+00 0. -1.
       -6    2    1    2    0  503 -0.24017368237E+02 -0.11519637470E+03 -0.83678884265E+02  0.22654213563E+03  0.17456272461E+03 0.  0.
      -24    2    3    3    0    0 -0.22436348068E+02 -0.99225410400E+01 -0.87510064142E+02  0.12108196488E+03  0.80006151993E+02 0.  0.
        6    2    1    2  501    0  0.24017368237E+02  0.11519637470E+03 -0.54602480477E+01  0.20960752353E+03  0.17337376068E+03 0.  0.
       24    2    5    5    0    0  0.40105978085E+02 -0.69394559162E+01  0.88482035512E+01  0.85499400225E+02  0.74667336943E+02 0.  0.
        5    1    5    5  501    0 -0.16088609848E+02  0.12213583061E+03 -0.14308451599E+02  0.12410812331E+03  0.46999998093E+01 0. -1.
       -5    1    3    3    0  503 -0.15810201691E+01 -0.10527383366E+03  0.38311798774E+01  0.10546017075E+03  0.46999998093E+01 0.  1.
       13    1    4    4    0    0 -0.17909817266E+02 -0.41983480697E+02 -0.28611607334E+02  0.53870198442E+02  0.00000000000E+00 0. -1.
      -13    1    6    6    0    0  0.48173689177E+02  0.69300305041E+01 -0.19896662573E+02  0.52579528652E+02  0.00000000000E+00 0.  1.
       14    1    6    6    0    0 -0.80677110919E+01 -0.13869486420E+02  0.28744866125E+02  0.32919871573E+02  0.00000000000E+00 0. -1.
      -14    1    4    4    0    0 -0.45265308022E+01  0.32060939657E+02 -0.58898456808E+02  0.67211766434E+02  0.00000000000E+00 0.  1.
</event>
<event>
12   0  0.9284400E-04  0.2935028E+03  0.7546771E-02  0.1088629E+00
       21   -1    0    0  501  502  0.00000000000E+00  0.00000000000E+00  0.21486180582E+03  0.21486180582E+03  0.00000000000E+00 0. -1.
       21   -1    0    0  502  503  0.00000000000E+00  0.00000000000E+00 -0.55090982685E+03  0.55090982685E+03  0.00000000000E+00 0. -1.
       -6    2    1    2    0  503 -0.61868792949E+02  0.22755458150E+03 -0.36831582915E+03  0.47050039738E+03  0.17350861312E+03 0.  0.
      -24    2    3    3    0    0 -0.10600723295E+03  0.14806559546E+03 -0.28051907983E+03  0.34402091296E+03  0.80613152841E+02 0.  0.
        6    2    1    2  501    0  0.61868792949E+02 -0.22755458150E+03  0.32267808119E+02  0.29527123529E+03  0.17474282774E+03 0.  0.
       24    2    5    5    0    0 -0.29834673585E+02 -0.75609192378E+02 -0.30956866142E+01  0.11424749705E+03  0.80224993526E+02 0.  0.
        5    1    5    5  501    0  0.91703466533E+02 -0.15194538912E+03  0.35363494733E+02  0.18102373824E+03  0.46999998093E+01 0. -1.
       -5    1    3    3    0  503  0.44138440004E+02  0.79488986039E+02 -0.87796749324E+02  0.12647948441E+03  0.46999998093E+01 0.  1.
       13    1    4    4    0    0 -0.79275547494E+02  0.15164747963E+03 -0.25345936462E+03  0.30581566347E+03  0.00000000000E+00 0. -1.
      -13    1    6    6    0    0  0.26566247888E+02 -0.25620483103E+02 -0.10888568052E+02  0.38480327384E+02  0.00000000000E+00 0.  1.
       14    1    6    6    0    0 -0.56400921473E+02 -0.49988709275E+02  0.77928814380E+01  0.75767169665E+02  0.00000000000E+00 0. -1.
      -14    1    4    4    0    0 -0.26731685459E+02 -0.35818841737E+01 -0.27059715208E+02  0.38205249493E+02  0.00000000000E+00 0.  1.
</event>
<event>
12   0  0.9284400E-04  0.2304612E+03  0.7546771E-02  0.1126420E+00
       21   -1    0    0  501  502  0.00000000000E+00  0.00000000000E+00  0.39615529502E+03  0.39615529502E+03  0.00000000000E+00 0. -1.
       21   -1    0    0  502  503  0.00000000000E+00  0.00000000000E+00 -0.13758335793E+03  0.13758335793E+03  0.00000000000E+00 0.  1.
       -6    2    1    2    0  503  0.12858639871E+03  0.80798288313E+02  0.17381634600E+03  0.28818643180E+03  0.17255860457E+03 0.  0.
      -24    2    3    3    0    0  0.62472674986E+02  0.11476232659E+03  0.13386569085E+03  0.20367178688E+03  0.80553999665E+02 0.  0.
        6    2    1    2  501    0 -0.12858639871E+03 -0.80798288313E+02  0.84755591093E+02  0.24555222115E+03  0.17334808267E+03 0.  0.
       24    2    5    5    0    0 -0.59539400383E+02 -0.11515135492E+03  0.59818590724E+02  0.16436376662E+03  0.81439604897E+02 0.  0.
        5    1    5    5  501    0 -0.69046998327E+02  0.34353066604E+02  0.24937000369E+02  0.81188454528E+02  0.46999998093E+01 0. -1.
       -5    1    3    3    0  503  0.66113723724E+02 -0.33964038275E+02  0.39950655153E+02  0.84514644920E+02  0.46999998093E+01 0.  1.
       13    1    4    4    0    0  0.41983032708E+02  0.60515573782E+02  0.12489486148E+03  0.14499460725E+03  0.00000000000E+00 0. -1.
      -13    1    6    6    0    0 -0.48870973042E+02 -0.29609173026E+02  0.52922217780E+02  0.77883478788E+02  0.00000000000E+00 0.  1.
       14    1    6    6    0    0 -0.10668427340E+02 -0.85542181890E+02  0.68963729442E+01  0.86480287836E+02  0.00000000000E+00 0. -1.
      -14    1    4    4    0    0  0.20489642278E+02  0.54246752806E+02  0.89708293654E+01  0.58677179637E+02  0.00000000000E+00 0.  1.
</event>
<event>
12   0  0.9284400E-04  0.1749579E+03  0.7546771E-02  0.1172774E+00
       -4   -1    0    0    0  501  0.00000000000E+00  0.00000000000E+00  0.30158815158E+03  0.30158815158E+03  0.00000000000E+00 0.  1.
        4   -1    0    0  502    0  0.00000000000E+00  0.00000000000E+00 -0.12177956628E+03  0.12177956628E+03  0.00000000000E+00 0. -1.
        6    2    1    2  502    0 -0.12874761942E+02 -0.22246265580E+02  0.17636492659E+03  0.24854158631E+03  0.17322724084E+03 0.  0.
       24    2    3    3    0    0  0.18086249148E+02  0.50623800294E+02  0.10209795821E+03  0.13988477199E+03  0.79081444090E+02 0.  0.
       -6    2    1    2    0  501  0.12874761942E+02  0.22246265580E+02  0.34436587048E+01  0.17482613155E+03  0.17289205204E+03 0.  0.
      -24    2    5    5    0    0 -0.43441881594E+02 -0.11922386340E+02 -0.32947786862E+02  0.99423953718E+02  0.82281380284E+02 0.  0.
        5    1    3    3  502    0 -0.30961011090E+02 -0.72870065874E+02  0.74266968384E+02  0.10865681433E+03  0.46999998093E+01 0. -1.
       -5    1    5    5    0  501  0.56316643536E+02  0.34168651919E+02  0.36391445566E+02  0.75402177832E+02  0.46999998093E+01 0.  1.
       13    1    6    6    0    0  0.10259955397E+02 -0.30260685861E+01 -0.42790700631E+02  0.44107457831E+02  0.00000000000E+00 0. -1.
      -13    1    4    4    0    0 -0.14827141303E+02 -0.15662061787E+02  0.21208661957E+02  0.30248167559E+02  0.00000000000E+00 0.  1.
       14    1    4    4    0    0  0.32913390452E+02  0.66285862081E+02  0.80889296251E+02  0.10963660443E+03  0.00000000000E+00 0. -1.
      -14    1    6    6    0    0 -0.53701836991E+02 -0.88963177537E+01  0.98429137689E+01  0.55316495887E+02  0.00000000000E+00 0.  1.
</event>
<event>
12   0  0.9284400E-04  0.1913870E+03  0.7546771E-02  0.1157407E+00
       21   -1    0    0  503  502  0.00000000000E+00  0.00000000000E+00  0.15908896866E+03  0.15908896866E+03  0.00000000000E+00 0. -1.
       21   -1    0    0  501  503  0.00000000000E+00  0.00000000000E+00 -0.25577830785E+03  0.25577830785E+03  0.00000000000E+00 0. -1.
        6    2    1    2  501    0  0.57810445581E+02 -0.56629163108E+02 -0.11509024808E+03  0.22259776276E+03  0.17249663489E+03 0.  0.
       24    2    3    3    0    0  0.52601232459E+02 -0.65135908791E+02 -0.86790080324E+01  0.11561672411E+03  0.79261121890E+02 0.  0.
       -6    2    1    2    0  502 -0.57810445581E+02  0.56629163108E+02  0.18400908892E+02  0.19226951376E+03  0.17343604798E+03 0.  0.
      -24    2    5    5    0    0 -0.55442948606E+02  0.15703014854E+02 -0.50851175212E+02  0.11165626544E+03  0.80998607187E+02 0.  0.
        5    1    3    3  501    0  0.52092131219E+01  0.85067456829E+01 -0.10641124005E+03  0.10698103865E+03  0.46999998093E+01 0. -1.
       -5    1    5    5    0  502 -0.23674969747E+01  0.40926148255E+02  0.69252084104E+02  0.80613248314E+02  0.46999998093E+01 0.  1.
       13    1    6    6    0    0  0.19376409044E+02  0.60247643612E+01  0.66516093537E+00  0.20302350901E+02  0.00000000000E+00 0. -1.
      -13    1    4    4    0    0  0.62683488925E+01 -0.67520127517E+02 -0.12915587939E+02  0.69029502602E+02  0.00000000000E+00 0.  1.
       14    1    4    4    0    0  0.46332883566E+02  0.23842187259E+01  0.42365799063E+01  0.46587221508E+02  0.00000000000E+00 0. -1.
      -14    1    6    6    0    0 -0.74819357650E+02  0.96782504924E+01 -0.51516336147E+02  0.91353914540E+02  0.00000000000E+00 0.  1.
</event>
<event>
12   0  0.9284400E-04  0.2133578E+03  0.7546771E-02  0.1139946E+00
       21   -1    0    0  503  502  0.00000000000E+00  0.00000000000E+00  0.64647236195E+02  0.64647236195E+02  0.00000000000E+00 0.  1.
       21   -1    0    0  501  503  0.00000000000E+00  0.00000000000E+00 -0.78509245528E+03  0.78509245528E+03  0.00000000000E+00 0.  1.
        6    2    1    2  501    0 -0.63119992081E+02  0.97817130554E+02 -0.50633899584E+03  0.54747652197E+03  0.17262398147E+03 0.  0.
       24    2    3    3    0    0 -0.10005378483E+03  0.11043998571E+03 -0.41169649288E+03  0.44499367032E+03  0.79483420113E+02 0.  0.
       -6    2    1    2    0  502  0.63119992081E+02 -0.97817130554E+02 -0.21410622325E+03  0.30226316950E+03  0.17879939702E+03 0.  0.
      -24    2    5    5    0    0  0.97031449010E+02 -0.10023773601E+03 -0.12169003694E+03  0.20367976455E+03  0.84936891737E+02 0.  0.
        5    1    3    3  501    0  0.36933792748E+02 -0.12622855155E+02 -0.94642502956E+02  0.10248285165E+03  0.46999998093E+01 0. -1.
       -5    1    5    5    0  502 -0.33911456928E+02  0.24206054608E+01 -0.92416186311E+02  0.98583404954E+02  0.46999998093E+01 0.  1.
       13    1    6    6    0    0  0.50602505314E+02 -0.83455275814E+02 -0.11946085053E+03  0.15426046614E+03  0.00000000000E+00 0. -1.
      -13    1    4    4    0    0 -0.10352351722E+03  0.84262511743E+02 -0.38483160464E+03  0.40732376979E+03  0.00000000000E+00 0.  1.
       14    1    4    4    0    0  0.34697323902E+01  0.26177473965E+02 -0.26864888239E+02  0.37669900533E+02  0.00000000000E+00 0. -1.
      -14    1    6    6    0    0  0.46428943696E+02 -0.16782460201E+02 -0.22291864119E+01  0.49419298408E+02  0.00000000000E+00 0.  1.
</event>
<event>
12   0  0.9284400E-04  0.1790432E+03  0.7546771E-02  0.1170241E+00
       21   -1    0    0  501  502  0.00000000000E+00  0.00000000000E+00  0.65679839315E+02  0.65679839315E+02  0.00000000000E+00 0. -1.
       21   -1    0    0  502  503  0.00000000000E+00  0.00000000000E+00 -0.55604436980E+03  0.55604436980E+03  0.00000000000E+00 0. -1.
       -6    2    1    2    0  503 -0.21636647751E+02 -0.10382546951E+02 -0.36987417609E+03  0.41092989901E+03  0.17742754566E+03 0.  0.
      -24    2    3    3    0    0  0.54115263953E+02  0.14641350666E+02 -0.22321098369E+03  0.24390675816E+03  0.80774578256E+02 0.  0.
        6    2    1    2  501    0  0.21636647751E+02  0.10382546951E+02 -0.12049035439E+03  0.21079431010E+03  0.17129032040E+03 0.  0.
       24    2    5    5    0    0  0.47949102028E+02  0.49279373927E+02 -0.12420138136E+03  0.16345331182E+03  0.81014992031E+02 0.  0.
        5    1    5    5  501    0 -0.26312454278E+02 -0.38896826976E+02  0.37110269625E+01  0.47340998281E+02  0.46999998093E+01 0. -1.
       -5    1    3    3    0  503 -0.75751911704E+02 -0.25023897617E+02 -0.14666319239E+03  0.16702314085E+03  0.46999998093E+01 0.  1.
       13    1    4    4    0    0 -0.17392702269E+02  0.20065467312E+02 -0.56748388553E+02  0.62653879960E+02  0.00000000000E+00 0. -1.
      -13    1    6    6    0    0 -0.22943228971E+02  0.11929516751E+02 -0.35473024076E+02  0.43898070146E+02  0.00000000000E+00 0.  1.
       14    1    6    6    0    0  0.70892330999E+02  0.37349857176E+02 -0.88728357281E+02  0.11955524167E+03  0.00000000000E+00 0. -1.
      -14    1    4    4    0    0  0.71507966223E+02 -0.54241166462E+01 -0.16646259514E+03  0.18125287820E+03  0.00000000000E+00 0.  1.
</event>
<event>
12   0  0.9284400E-04  0.2898876E+03  0.7546771E-02  0.1090465E+00
       21   -1    0    0  503  502  0.00000000000E+00  0.00000000000E+00  0.71622698033E+03  0.71622698033E+03  0.00000000000E+00 0.  1.
       21   -1    0    0  501  503  0.00000000000E+00  0.00000000000E+00 -0.11749254650E+03  0.11749254650E+03  0.00000000000E+00 0.  1.
        6    2    1    2  501    0 -0.23211738060E+02  0.23118624197E+03  0.27715110650E+03  0.40105806049E+03  0.17334638384E+03 0.  0.
       24    2    3    3    0    0  0.49161368819E+02  0.12742800175E+03  0.18926966285E+03  0.24695135347E+03  0.80667402901E+02 0.  0.
       -6    2    1    2    0  502  0.23211738060E+02 -0.23118624197E+03  0.32158332734E+03  0.43266146634E+03  0.17261009465E+03 0.  0.
      -24    2    5    5    0    0  0.22371502065E+00 -0.27877081142E+02  0.78160353667E+02  0.11463647017E+03  0.79090440044E+02 0.  0.
        5    1    3    3  501    0 -0.72373106879E+02  0.10375824022E+03  0.87881443648E+02  0.15410670702E+03  0.46999998093E+01 0. -1.
       -5    1    5    5    0  502  0.22988023039E+02 -0.20330916083E+03  0.24342297367E+03  0.31802499617E+03  0.46999998093E+01 0.  1.
       13    1    6    6    0    0 -0.69663924505E+01 -0.35423614525E+02  0.91116403451E+02  0.98007969409E+02  0.00000000000E+00 0. -1.
      -13    1    4    4    0    0 -0.96130947589E+01  0.85878610288E+02  0.10989142699E+03  0.13979868748E+03  0.00000000000E+00 0.  1.
       14    1    4    4    0    0  0.58774463578E+02  0.41549391457E+02  0.79378235862E+02  0.10715266599E+03  0.00000000000E+00 0. -1.
      -14    1    6    6    0    0  0.71901074711E+01  0.75465333832E+01 -0.12956049784E+02  0.16628500761E+02  0.00000000000E+00 0.  1.
</event>
<event>
12   0  0.9284400E-04  0.2165832E+03  0.7546771E-02  0.1136543E+00
       21   -1    0    0  503  502  0.00000000000E+00  0.00000000000E+00  0.14824917907E+04  0.14824917907E+04  0.00000000000E+00 0.  1.
       21   -1    0    0  501  503  0.00000000000E+00  0.00000000000E+00 -0.32890267299E+02  0.32890267299E+02  0.00000000000E+00 0. -1.
        6    2    1    2  501    0 -0.10008170403E+03 -0.82081513944E+02  0.57400956079E+03  0.61351060696E+03  0.17365070274E+03 0.  0.
       24    2    3    3    0    0 -0.11057746907E+03 -0.10277435512E+03  0.55682397668E+03  0.58425673441E+03  0.92266169095E+02 0.  0.
       -6    2    1    2    0  502  0.10008170403E+03  0.82081513944E+02  0.87559196256E+03  0.90187145099E+03  0.17308121445E+03 0.  0.
      -24    2    5    5    0    0  0.13254017393E+03  0.60584041834E+02  0.79421330945E+03  0.81153724508E+03  0.81120869218E+02 0.  0.
        5    1    3    3  501    0  0.10495765044E+02  0.20692841179E+02  0.17185584114E+02  0.29253872555E+02  0.46999998093E+01 0. -1.
       -5    1    5    5    0  502 -0.32458469907E+02  0.21497472109E+02  0.81378653115E+02  0.90334205907E+02  0.46999998093E+01 0.  1.
       13    1    6    6    0    0  0.26025344216E+02  0.21326430729E+02  0.61683752573E+02  0.70263934708E+02  0.00000000000E+00 0. -1.
      -13    1    4    4    0    0  0.36889164702E+01 -0.42332976029E+02  0.20692226218E+03  0.21124041173E+03  0.00000000000E+00 0.  1.
       14    1    4    4    0    0 -0.11426638554E+03 -0.60441379094E+02  0.34990171450E+03  0.37301632268E+03  0.00000000000E+00 0. -1.
      -14    1    6    6    0    0  0.10651482972E+03  0.39257611105E+02  0.73252955688E+03  0.74127331038E+03  0.00000000000E+00 0.  1.
</event>
<event>
12   0  0.9284400E-04  0.2616694E+03  0.7546771E-02  0.1106144E+00
       -1   -1    0    0    0  501  0.00000000000E+00  0.00000000000E+00  0.50866665315E+02  0.50866665315E+02  0.00000000000E+00 0.  1.
        1   -1    0    0  502    0  0.00000000000E+00  0.00000000000E+00 -0.22084532934E+04  0.22084532934E+04  0.00000000000E+00 0. -1.
        6    2    1    2  502    0  0.18023611482E+03  0.82439751850E+02 -0.17807389460E+04  0.17996352031E+04  0.16844672979E+03 0.  0.
       24    2    3    3    0    0  0.40912212108E+02  0.74427467880E+02 -0.96424683202E+03  0.97128937635E+03  0.80111437810E+02 0.  0.
       -6    2    1    2    0  501 -0.18023611482E+03 -0.82439751850E+02 -0.37684768211E+03  0.45968475561E+03  0.17324701802E+03 0.  0.
      -24    2    5    5    0    0 -0.13455343263E+03 -0.64730042036E+02 -0.37391141568E+03  0.41037701856E+03  0.79403690192E+02 0.  0.
        5    1    3    3  502    0  0.13932390272E+03  0.80122839700E+01 -0.81649211395E+03  0.82834582675E+03  0.46999998093E+01 0. -1.
       -5    1    5    5    0  501 -0.45682682193E+02 -0.17709709814E+02 -0.29362664371E+01  0.49307737048E+02  0.46999998093E+01 0.  1.
       13    1    6    6    0    0 -0.23414467040E+02 -0.21590422362E+02 -0.17964507010E+03  0.18244652591E+03  0.00000000000E+00 0. -1.
      -13    1    4    4    0    0  0.18739584769E+02 -0.11906278785E+02 -0.98769266387E+02  0.10123388511E+03  0.00000000000E+00 0.  1.
       14    1    4    4    0    0  0.22172627339E+02  0.86333746665E+02 -0.86547756564E+03  0.87005549124E+03  0.00000000000E+00 0. -1.
      -14    1    6    6    0    0 -0.11113896559E+03 -0.43139619674E+02 -0.19426634558E+03  0.22793049266E+03  0.00000000000E+00 0.  1.
</event>
<event>
12   0  0.9284400E-04  0.2824125E+03  0.7546771E-02  0.1094393E+00
       21   -1    0    0  503  502  0.00000000000E+00  0.00000000000E+00  0.26680907053E+03  0.26680907053E+03  0.00000000000E+00 0.  1.
       21   -1    0    0  501  503  0.00000000000E+00  0.00000000000E+00 -0.49716141125E+03  0.49716141125E+03  0.00000000000E+00 0.  1.
        6    2    1    2  501    0  0.20804841589E+03  0.79831170966E+02 -0.35646198266E+03  0.45477682359E+03  0.17349252139E+03 0.  0.
       24    2    3    3    0    0  0.18814049973E+03  0.93296670676E+01 -0.29609939088E+03  0.35973725465E+03  0.79070555726E+02 0.  0.
       -6    2    1    2    0  502 -0.20804841589E+03 -0.79831170966E+02  0.12610964194E+03  0.30919365820E+03  0.17332027368E+03 0.  0.
      -24    2    5    5    0    0 -0.85213643158E+02  0.39614122827E+01 -0.55324497355E+00  0.11380902390E+03  0.75333459197E+02 0.  0.
        5    1    3    3  501    0  0.19907916163E+02  0.70501503899E+02 -0.60362591784E+02  0.95039568933E+02  0.46999998093E+01 0. -1.
       -5    1    5    5    0  502 -0.12283477273E+03 -0.83792583249E+02  0.12666288691E+03  0.19538463430E+03  0.46999998093E+01 0.  1.
       13    1    6    6    0    0 -0.18016014138E+02  0.34867907110E+02  0.53462358338E+01  0.39609720388E+02  0.00000000000E+00 0. -1.
      -13    1    4    4    0    0  0.43532109816E+02 -0.30121147166E+02 -0.97209013087E+02  0.11068839287E+03  0.00000000000E+00 0.  1.
       14    1    4    4    0    0  0.14460838991E+03  0.39450814233E+02 -0.19889037779E+03  0.24904886178E+03  0.00000000000E+00 0. -1.
      -14    1    6    6    0    0 -0.67197629020E+02 -0.30906494828E+02 -0.58994808073E+01  0.74199303516E+02  0.00000000000E+00 0.  1.
</event>
<event>
12   0  0.9284400E-04  0.1754285E+03  0.7546771E-02  0.1172360E+00
       21   -1    0    0  501  502  0.00000000000E+00  0.00000000000E+00  0.18085012481E+03  0.18085012481E+03  0.00000000000E+00 0.  1.
       21   -1    0    0  502  503  0.00000000000E+00  0.00000000000E+00 -0.44490756879E+03  0.44490756879E+03  0.00000000000E+00 0.  1.
       -6    2    1    2    0  503 -0.25219171749E+02  0.10924429980E+02 -0.37796300732E+03  0.41659359742E+03  0.17302843903E+03 0.  0.
      -24    2    3    3    0    0  0.47628482577E+02 -0.17229103225E+02 -0.23560323048E+03  0.25415038201E+03  0.80735494746E+02 0.  0.
        6    2    1    2  501    0  0.25219171749E+02 -0.10924429980E+02  0.11390556334E+03  0.20916409618E+03  0.17326220586E+03 0.  0.
       24    2    5    5    0    0  0.84164768215E+02 -0.18108184232E+00  0.85342373718E+02  0.14262126282E+03  0.77290121351E+02 0.  0.
        5    1    5    5  501    0 -0.58945596465E+02 -0.10743348137E+02  0.28563189617E+02  0.66542833357E+02  0.46999998093E+01 0. -1.
       -5    1    3    3    0  503 -0.72847654326E+02  0.28153533205E+02 -0.14235977684E+03  0.16244321541E+03  0.46999998093E+01 0.  1.
       13    1    4    4    0    0  0.39583453660E+02 -0.33781062713E+02 -0.22861801767E+03  0.23446579283E+03  0.00000000000E+00 0. -1.
      -13    1    6    6    0    0 -0.51184077726E+01 -0.21666257008E+02  0.13603176121E+02  0.26089675955E+02  0.00000000000E+00 0.  1.
       14    1    6    6    0    0  0.89283175987E+02  0.21485175166E+02  0.71739197597E+02  0.11653158687E+03  0.00000000000E+00 0. -1.
      -14    1    4    4    0    0  0.80450289168E+01  0.16551959488E+02 -0.69852128033E+01  0.19684589177E+02  0.00000000000E+00 0.  1.
</event>
<event>
11   0  0.9284400E-04  0.3633247E+03  0.7546771E-02  0.1060963E+00
       21   -1    0    0  503  502  0.00000000000E+00  0.00000000000E+00  0.23658205007E+04  0.23658205007E+04  0.00000000000E+00 0. -1.
       21   -1    0    0  501  503  0.00000000000E+00  0.00000000000E+00 -0.66789140138E+02  0.66789140138E+02  0.00000000000E+00 0.  1.
        6    2    1    2  501    0 -0.22120433632E+03  0.16364472880E+03  0.50370832860E+03  0.60089196566E+03  0.17787107248E+03 0.  0.
       24    2    3    3    0    0 -0.18950946821E+03  0.64085924940E+02  0.27956016202E+03  0.35354401101E+03  0.82575052026E+02 0.  0.
      -24    2    1    2    0    0  0.23658754540E+03 -0.58546306861E+02  0.13137706929E+04  0.13385675290E+04  0.79801375292E+02 0.  0.
        5    1    3    3  501    0 -0.31694868109E+02  0.99558803858E+02  0.22414816658E+03  0.24734795465E+03  0.46999998093E+01 0. -1.
       -5    1    1    2    0  502 -0.15383209079E+02 -0.10509842194E+03  0.48155233907E+03  0.49315014618E+03  0.46999998093E+01 0.  1.
       13    1    5    5    0    0  0.75864772254E+01  0.14263728944E+02  0.84290300412E+02  0.85824608031E+02  0.00000000000E+00 0. -1.
      -13    1    4    4    0    0 -0.98493831340E+02  0.64961410529E+02  0.11107636290E+03  0.16204622200E+03  0.00000000000E+00 0.  1.
       14    1    4    4    0    0 -0.91015636872E+02 -0.87548558886E+00  0.16848379912E+03  0.19149778901E+03  0.00000000000E+00 0. -1.
      -14    1    5    5    0    0  0.22900106817E+03 -0.72810035805E+02  0.12294803925E+04  0.12527429210E+04  0.00000000000E+00 0.  1.
</event>
<event>
12   0  0.9284400E-04  0.1718691E+03  0.7546771E-02  0.1176474E+00
       21   -1    0    0  503  502  0.00000000000E+00  0.00000000000E+00  0.47633493841E+02  0.47633493841E+02  0.00000000000E+00 0. -1.
       21   -1    0    0  501  503  0.00000000000E+00  0.00000000000E+00 -0.11558239478E+04  0.11558239478E+04  0.00000000000E+00 0. -1.
        6    2    1    2  501    0  0.91662565837E+01  0.31649326904E+01 -0.96484880153E+03  0.97965883638E+03  0.16942310594E+03 0.  0.
       24    2    3    3    0    0 -0.26324736649E+02 -0.45520374772E+01 -0.25166288697E+03  0.26553321651E+03  0.80373923553E+02 0.  0.
       -6    2    1    2    0  502 -0.91662565837E+01 -0.31649326904E+01 -0.14334165239E+03  0.22379860522E+03  0.17159530684E+03 0.  0.
      -24    2    5    5    0    0  0.37608838159E+02  0.15646579848E+02 -0.26846152634E+02  0.96774694270E+02  0.83578617906E+02 0.  0.
        5    1    3    3  501    0  0.35490993232E+02  0.77169701676E+01 -0.71318591457E+03  0.71412561988E+03  0.46999998093E+01 0. -1.
       -5    1    5    5    0  502 -0.46775094743E+02 -0.18811512538E+02 -0.11649549975E+03  0.12702391095E+03  0.46999998093E+01 0.  1.
       13    1    6    6    0    0  0.32993643504E+02 -0.19033984739E+02  0.16124275656E+02  0.41362608140E+02  0.00000000000E+00 0. -1.
      -13    1    4    4    0    0  0.20171970470E+02  0.11570325313E+02 -0.27417887286E+02  0.35951653143E+02  0.00000000000E+00 0.  1.
       14    1    4    4    0    0 -0.46496707119E+02 -0.16122362790E+02 -0.22424499968E+03  0.22958156336E+03  0.00000000000E+00 0. -1.
      -14    1    6    6    0    0  0.46151946556E+01  0.34680564587E+02 -0.42970428290E+02  0.55412086130E+02  0.00000000000E+00 0.  1.
</event>
<event>
12   0  0.9284400E-04  0.2207967E+03  0.7546771E-02  0.1133352E+00
       21   -1    0    0  503  502  0.00000000000E+00  0.00000000000E+00  0.11764588465E+03  0.11764588465E+03  0.00000000000E+00 0.  1.
       21   -1    0    0  501  503  0.00000000000E+00  0.00000000000E+00 -0.60851691227E+03  0.60851691227E+03  0.00000000000E+00 0.  1.
        6    2    1    2  501    0  0.12542577159E+03  0.57058059021E+02 -0.45071186486E+03  0.50174368219E+03  0.17209965489E+03 0.  0.
       24    2    3    3    0    0  0.14117066151E+03  0.55238883991E+01 -0.32990311252E+03  0.36937859261E+03  0.87434615632E+02 0.  0.
       -6    2    1    2    0  502 -0.12542577159E+03 -0.57058059021E+02 -0.40159162758E+02  0.22441911473E+03  0.17252227225E+03 0.  0.
      -24    2    5    5    0    0 -0.18276338416E+01 -0.39260226959E+02 -0.22761695449E+01  0.93841652452E+02  0.85184324384E+02 0.  0.
        5    1    3    3  501    0 -0.15744889919E+02  0.51534170622E+02 -0.12080875234E+03  0.13236508958E+03  0.46999998093E+01 0. -1.
       -5    1    5    5    0  502 -0.12359813775E+03 -0.17797832062E+02 -0.37882993213E+02  0.13057746228E+03  0.46999998093E+01 0.  1.
       13    1    6    6    0    0 -0.36256123851E+02 -0.44043064312E+02 -0.10783195649E+02  0.58056656286E+02  0.00000000000E+00 0. -1.
      -13    1    4    4    0    0  0.82740926353E+02 -0.39534852429E+02 -0.19900915566E+03  0.21912030825E+03  0.00000000000E+00 0.  1.
       14    1    4    4    0    0  0.58429735159E+02  0.45058740828E+02 -0.13089395686E+03  0.15025828436E+03  0.00000000000E+00 0. -1.
      -14    1    6    6    0    0  0.34428490010E+02  0.47828373525E+01  0.85070261043E+01  0.35784996166E+02  0.00000000000E+00 0.  1.
</event>
<event>
12   0  0.9284400E-04  0.1973879E+03  0.7546771E-02  0.1151962E+00
       -2   -1    0    0    0  501  0.00000000000E+00  0.00000000000E+00  0.13158222837E+03  0.13158222837E+03  0.00000000000E+00 0.  1.
        2   -1    0    0  502    0  0.00000000000E+00  0.00000000000E+00 -0.51935902037E+03  0.51935902037E+03  0.00000000000E+00 0. -1.
        6    2    1    2  502    0  0.59769093107E+01 -0.10603010708E+03 -0.41022875218E+03  0.45771375499E+03  0.17302065005E+03 0.  0.
       24    2    3    3    0    0 -0.52899727854E+02 -0.10686162043E+03 -0.28465698378E+03  0.31894232841E+03  0.80478713410E+02 0.  0.
       -6    2    1    2    0  501 -0.59769093107E+01  0.10603010708E+03  0.22451960177E+02  0.19322749375E+03  0.15985827090E+03 0.  0.
      -24    2    5    5    0    0 -0.28148813289E+02  0.10083265651E+02  0.36935538112E+02  0.93581852935E+02  0.80618244135E+02 0.  0.
        5    1    3    3  502    0  0.58876637165E+02  0.83151334753E+00 -0.12557176840E+03  0.13877142658E+03  0.46999998093E+01 0. -1.
       -5    1    5    5    0  501  0.22171903978E+02  0.95946841427E+02 -0.14483577935E+02  0.99645640817E+02  0.46999998093E+01 0.  1.
       13    1    6    6    0    0  0.10259877554E+02 -0.22361268756E+02 -0.82843547292E+01  0.25960006955E+02  0.00000000000E+00 0. -1.
      -13    1    4    4    0    0 -0.26533923807E+02 -0.10162977733E+03 -0.26664068681E+03  0.28658317574E+03  0.00000000000E+00 0.  1.
       14    1    4    4    0    0 -0.26365804047E+02 -0.52318430953E+01 -0.18016296961E+02  0.32359152669E+02  0.00000000000E+00 0. -1.
      -14    1    6    6    0    0 -0.38408690843E+02  0.32444534408E+02  0.45219892842E+02  0.67621845980E+02  0.00000000000E+00 0.  1.
</event>
<event>
12   0  0.9284400E-04  0.2558394E+03  0.7546771E-02  0.1109773E+00
       21   -1    0    0  501  502  0.00000000000E+00  0.00000000000E+00  0.15182869361E+03  0.15182869361E+03  0.00000000000E+00 0.  1.
       21   -1    0    0  502  503  0.00000000000E+00  0.00000000000E+00 -0.43963465791E+03  0.43963465791E+03  0.00000000000E+00 0.  1.
       -6    2    1    2    0  503 -0.16812706817E+03 -0.82795412548E+02 -0.18796364027E+03  0.31746518716E+03  0.17416091296E+03 0.  0.
      -24    2    3    3    0    0 -0.12034008008E+03 -0.12026146676E+03 -0.17121913461E+03  0.25430056164E+03  0.80051410574E+02 0.  0.
        6    2    1    2  501    0  0.16812706817E+03  0.82795412548E+02 -0.99842324023E+02  0.27399816436E+03  0.17316094541E+03 0.  0.
       24    2    5    5    0    0  0.19891524912E+02  0.12648605692E+02 -0.36902499995E+01  0.83835964815E+02  0.80369092705E+02 0.  0.
        5    1    5    5  501    0  0.14823554326E+03  0.70146806855E+02 -0.96152074023E+02  0.19016219954E+03  0.46999998093E+01 0. -1.
       -5    1    3    3    0  503 -0.47786988089E+02  0.37466054208E+02 -0.16744505667E+02  0.63164625518E+02  0.46999998093E+01 0.  1.
       13    1    4    4    0    0 -0.17602171260E+02 -0.67890619312E+02 -0.85664397402E+02  0.11071296946E+03  0.00000000000E+00 0. -1.
      -13    1    6    6    0    0  0.50366613981E+02  0.20570965703E+01  0.43197412046E+01  0.50593355436E+02  0.00000000000E+00 0.  1.
       14    1    6    6    0    0 -0.30475089069E+02  0.10591509122E+02 -0.80099912041E+01  0.33242609379E+02  0.00000000000E+00 0. -1.
      -14    1    4    4    0    0 -0.10273790882E+03 -0.52370847444E+02 -0.85554737205E+02  0.14358759218E+03  0.00000000000E+00 0.  1.
</event>
<event>
12   0  0.9284400E-04  0.1953550E+03  0.7546771E-02  0.1154136E+00
       21   -1    0    0  503  502  0.00000000000E+00  0.00000000000E+00  0.91798189140E+02  0.91798189140E+02  0.00000000000E+00 0.  1.
       21   -1    0    0  501  503  0.00000000000E+00  0.00000000000E+00 -0.68495144281E+03  0.68495144281E+03  0.00000000000E+00 0.  1.
        6    2    1    2  501    0 -0.41625576372E+02  0.75188374494E+02 -0.54101250797E+03  0.57455611682E+03  0.17330382951E+03 0.  0.
       24    2    3    3    0    0  0.78246073910E+01  0.53301157573E+02 -0.49132251374E+03  0.50096565233E+03  0.81648848291E+02 0.  0.
       -6    2    1    2    0  502  0.41625576372E+02 -0.75188374494E+02 -0.52140745698E+02  0.20219351513E+03  0.17543540102E+03 0.  0.
      -24    2    5    5    0    0 -0.48068945200E+01 -0.10803078828E+03 -0.24374088927E+02  0.13872954328E+03  0.83414821918E+02 0.  0.
        5    1    3    3  501    0 -0.49450183763E+02  0.21887216920E+02 -0.49689994237E+02  0.73590464492E+02  0.46999998093E+01 0. -1.
       -5    1    5    5    0  502  0.46432470892E+02  0.32842413790E+02 -0.27766656771E+02  0.63463971852E+02  0.46999998093E+01 0.  1.
       13    1    6    6    0    0 -0.50779650998E+01  0.13074525734E+02  0.35030377245E+01  0.14456840112E+02  0.00000000000E+00 0. -1.
      -13    1    4    4    0    0 -0.28361309795E+02  0.45998166779E+02 -0.19488295061E+03  0.20223639554E+03  0.00000000000E+00 0.  1.
       14    1    4    4    0    0  0.36185917186E+02  0.73029907947E+01 -0.29643956312E+03  0.29872925679E+03  0.00000000000E+00 0. -1.
      -14    1    6    6    0    0  0.27107057980E+00 -0.12110531402E+03 -0.27877126651E+02  0.12427270317E+03  0.00000000000E+00 0.  1.
</event>
<event>
12   0  0.9284400E-04  0.2071003E+03  0.7546771E-02  0.1143900E+00
       21   -1    0    0  501  502  0.00000000000E+00  0.00000000000E+00  0.12930175026E+03  0.12930175026E+03  0.00000000000E+00 0. -1.
       21   -1    0    0  502  503  0.00000000000E+00  0.00000000000E+00 -0.47744512601E+03  0.47744512601E+03  0.00000000000E+00 0. -1.
        6    2    1    2  501    0  0.31248283174E+02 -0.11019150357E+03 -0.34173552671E+03  0.39954743214E+03  0.17244233138E+03 0.  0.
       24    2    3    3    0    0  0.64464777813E+02 -0.56356656969E+02 -0.30455507145E+03  0.32602190952E+03  0.78770004332E+02 0.  0.
       -6    2    1    2    0  503 -0.31248283174E+02  0.11019150357E+03 -0.64078490368E+01  0.20719944413E+03  0.17254543303E+03 0.  0.
      -24    2    5    5    0    0 -0.89213077332E+01  0.17119815225E+02  0.50684126534E+02  0.95653862975E+02  0.78791516133E+02 0.  0.
        5    1    3    3  501    0 -0.33216494639E+02 -0.53834846596E+02 -0.37180455268E+02  0.73525522619E+02  0.46999998093E+01 0. -1.
       -5    1    5    5    0  503 -0.22326975440E+02  0.93071688341E+02 -0.57091975571E+02  0.11154558116E+03  0.46999998093E+01 0.  1.
       13    1    6    6    0    0 -0.17156501491E+02  0.35327314614E+02 -0.19830934430E+01  0.39322987690E+02  0.00000000000E+00 0. -1.
      -13    1    4    4    0    0  0.63106095649E+02 -0.39868034613E+02 -0.12416742870E+03  0.14487715431E+03  0.00000000000E+00 0.  1.
       14    1    4    4    0    0  0.13586821640E+01 -0.16488622356E+02 -0.18038764275E+03  0.18114475521E+03  0.00000000000E+00 0. -1.
      -14    1    6    6    0    0  0.82351937582E+01 -0.18207499389E+02  0.52667219977E+02  0.56330875285E+02  0.00000000000E+00 0.  1.
</event>
<event>
12   0  0.9284400E-04  0.2010925E+03  0.7546771E-02  0.1148857E+00
       21   -1    0    0  501  502  0.00000000000E+00  0.00000000000E+00  0.49634921059E+03  0.49634921059E+03  0.00000000000E+00 0.  1.
       21   -1    0    0  502  503  0.00000000000E+00  0.00000000000E+00 -0.36009506794E+03  0.36009506794E+03  0.00000000000E+00 0.  1.
       -6    2    1    2    0  503  0.30743883953E+02  0.99133364668E+02 -0.30860420288E+03  0.36824642809E+03  0.17203565728E+03 0.  0.
      -24    2    3    3    0    0  0.37348862379E+02  0.29767885960E+02 -0.62669782986E+02  0.11258840599E+03  0.80421283933E+02 0.  0.
        6    2    1    2  501    0 -0.30743883953E+02 -0.99133364668E+02  0.44485834553E+03  0.48819785044E+03  0.17223699717E+03 0.  0.
       24    2    5    5    0    0 -0.49464867324E+02 -0.23834737051E+02  0.36132105307E+03  0.37408857050E+03  0.79840386997E+02 0.  0.
        5    1    5    5  501    0  0.18720983371E+02 -0.75298627617E+02  0.83537292464E+02  0.11410927995E+03  0.46999998093E+01 0. -1.
       -5    1    3    3    0  503 -0.66049784253E+01  0.69365478707E+02 -0.24593441989E+03  0.25565802210E+03  0.46999998093E+01 0.  1.
       13    1    4    4    0    0  0.62594369115E+02  0.24796556805E+02 -0.50284159068E+02  0.84032261230E+02  0.00000000000E+00 0. -1.
      -13    1    6    6    0    0 -0.45987453598E+02 -0.39135988405E+02  0.34886947707E+03  0.35405703426E+03  0.00000000000E+00 0.  1.
       14    1    6    6    0    0 -0.34774137254E+01  0.15301251354E+02  0.12451576000E+02  0.20031536239E+02  0.00000000000E+00 0. -1.
      -14    1    4    4    0    0 -0.25245506737E+02  0.49713291550E+01 -0.12385623918E+02  0.28556144764E+02  0.00000000000E+00 0.  1.
</event>
<event>
12   0  0.9284400E-04  0.1846042E+03  0.7546771E-02  0.1163463E+00
       21   -1    0    0  501  502  0.00000000000E+00  0.00000000000E+00  0.70532087055E+03  0.70532087055E+03  0.00000000000E+00 0. -1.
       21   -1    0    0  502  503  0.00000000000E+00  0.00000000000E+00 -0.67919878043E+02  0.67919878043E+02  0.00000000000E+00 0. -1.
       -6    2    1    2    0  503 -0.17650282571E+02  0.62471476114E+02  0.11085297420E+03  0.21533017083E+03  0.17281343344E+03 0.  0.
      -24    2    3    3    0    0 -0.75387895509E+02  0.25775426490E+02  0.58957539088E+02  0.12933332095E+03  0.83086756419E+02 0.  0.
        6    2    1    2  501    0  0.17650282571E+02 -0.62471476114E+02  0.52654801831E+03  0.55791057776E+03  0.17261859517E+03 0.  0.
       24    2    5    5    0    0  0.45190856591E+02 -0.60827909052E+02  0.17965081783E+03  0.20988623633E+03  0.77688916954E+02 0.  0.
        5    1    5    5  501    0 -0.27540574020E+02 -0.16435670626E+01  0.34689720048E+03  0.34802434143E+03  0.46999998093E+01 0. -1.
       -5    1    3    3    0  503  0.57737612938E+02  0.36696049625E+02  0.51895435116E+02  0.85996849884E+02  0.46999998093E+01 0.  1.
       13    1    4    4    0    0 -0.32992020415E+02  0.14918121280E+01 -0.18424773277E+02  0.37817604165E+02  0.00000000000E+00 0. -1.
      -13    1    6    6    0    0  0.83409099515E+01 -0.29815082733E+02  0.85254364064E+01  0.32112193994E+02  0.00000000000E+00 0.  1.
       14    1    6    6    0    0  0.36849946640E+02 -0.31012826319E+02  0.17112538142E+03  0.17777404234E+03  0.00000000000E+00 0. -1.
      -14    1    4    4    0    0 -0.42395875094E+02  0.24283614362E+02  0.77382312365E+02  0.91515716784E+02  0.00000000000E+00 0.  1.
</event>
<event>
12   0  0.9284400E-04  0.2052147E+03  0.7546771E-02  0.1145866E+00
       21   -1    0    0  503  502  0.00000000000E+00  0.00000000000E+00  0.89407868633E+02  0.89407868633E+02  0.00000000000E+00 0. -1.
       21   -1    0    0  501  503  0.00000000000E+00  0.00000000000E+00 -0.50451286737E+03  0.50451286737E+03  0.00000000000E+00 0. -1.
        6    2    1    2  501    0 -0.10150845420E+03 -0.42611283938E+02 -0.29067907603E+03  0.35581931731E+03  0.17318595074E+03 0.  0.
       24    2    3    3    0    0 -0.13765997372E+03 -0.18685592855E+02 -0.24236316676E+03  0.29073561624E+03  0.80547341383E+02 0.  0.
       -6    2    1    2    0  502  0.10150845420E+03  0.42611283938E+02 -0.12442592271E+03  0.23810141870E+03  0.17056021679E+03 0.  0.
      -24    2    5    5    0    0  0.12324385535E+03 -0.49533966601E+01 -0.11071555824E+03  0.18383457251E+03  0.79521262524E+02 0.  0.
        5    1    3    3  501    0  0.36151519521E+02 -0.23925691083E+02 -0.48315909276E+02  0.65083701069E+02  0.46999998093E+01 0. -1.
       -5    1    5    5    0  502 -0.21735401145E+02  0.47564680598E+02 -0.13710364467E+02  0.54266846190E+02  0.46999998093E+01 0.  1.
       13    1    6    6    0    0  0.84558724264E+02  0.24278427063E+02 -0.36638436139E+02  0.95299500904E+02  0.00000000000E+00 0. -1.
      -13    1    4    4    0    0 -0.10612152666E+03  0.14118645983E+02 -0.12340401635E+03  0.16336972129E+03  0.00000000000E+00 0.  1.
       14    1    4    4    0    0 -0.31538447063E+02 -0.32804238838E+02 -0.11895915041E+03  0.12736589495E+03  0.00000000000E+00 0. -1.
      -14    1    6    6    0    0  0.38685131084E+02 -0.29231823723E+02 -0.74077122102E+02  0.88535071605E+02  0.00000000000E+00 0.  1.
</event>
<event>
12   0  0.9284400E-04  0.1881315E+03  0.7546771E-02  0.1160157E+00
        1   -1    0    0  502    0  0.00000000000E+00  0.00000000000E+00  0.12502754068E+03  0.12502754068E+03  0.00000000000E+00 0.  1.
       -1   -1    0    0    0  501  0.00000000000E+00  0.00000000000E+00 -0.31846119194E+03  0.31846119194E+03  0.00000000000E+00 0. -1.
        6    2    1    2  502    0  0.57962656582E+02  0.46016222042E+02 -0.23694926229E+02  0.19147569425E+03  0.17499808487E+03 0.  0.
       24    2    3    3    0    0  0.96975606723E+02 -0.17065296705E+01 -0.11557013524E+02  0.12847656542E+03  0.83459467759E+02 0.  0.
       -6    2    1    2    0  501 -0.57962656582E+02 -0.46016222042E+02 -0.16973872503E+03  0.25201303838E+03  0.17094494578E+03 0.  0.
      -24    2    5    5    0    0 -0.79199792181E+02  0.21692365077E+02 -0.95997761227E+02  0.14956652336E+03  0.80071274287E+02 0.  0.
        5    1    3    3  502    0 -0.39012950140E+02  0.47722751712E+02 -0.12137912705E+02  0.62999128825E+02  0.46999998093E+01 0. -1.
       -5    1    5    5    0  501  0.21237135598E+02 -0.67708587119E+02 -0.73740963802E+02  0.10244651501E+03  0.46999998093E+01 0.  1.
       13    1    6    6    0    0 -0.17033120035E+02  0.33260033778E+02 -0.73493038201E+02  0.82447460174E+02  0.00000000000E+00 0. -1.
      -13    1    4    4    0    0  0.18477346352E+02  0.25530982835E+02  0.22453054943E+02  0.38696034539E+02  0.00000000000E+00 0.  1.
       14    1    4    4    0    0  0.78498260370E+02 -0.27237512506E+02 -0.34010068467E+02  0.89780530884E+02  0.00000000000E+00 0. -1.
      -14    1    6    6    0    0 -0.62166672146E+02 -0.11567668702E+02 -0.22504723026E+02  0.67119063189E+02  0.00000000000E+00 0.  1.
</event>
<event>
12   0  0.9284400E-04  0.3768107E+03  0.7546771E-02  0.1052182E+00
       21   -1    0    0  503  502  0.00000000000E+00  0.00000000000E+00  0.19350700020E+03  0.19350700020E+03  0.00000000000E+00 0.  1.
       21   -1    0    0  501  503  0.00000000000E+00  0.00000000000E+00 -0.90145296350E+03  0.90145296350E+03  0.00000000000E+00 0.  1.
        6    2    1    2  501    0 -0.32162424946E+03 -0.90985889010E+02 -0.11716679924E+03  0.39460656055E+03  0.17397036800E+03 0.  0.
       24    2    3    3    0    0 -0.43878228116E+02 -0.13514773525E+02 -0.10929804000E+02  0.87274467750E+02  0.73412697127E+02 0.  0.
       -6    2    1    2    0  502  0.32162424946E+03  0.90985889010E+02 -0.59077916405E+03  0.70035340315E+03  0.17249428622E+03 0.  0.
      -24    2    5    5    0    0  0.10415275667E+03  0.18091389077E+02 -0.14118265415E+03  0.19560933928E+03  0.84589459737E+02 0.  0.
        5    1    3    3  501    0 -0.27774602135E+03 -0.77471115485E+02 -0.10623699524E+03  0.30733209280E+03  0.46999998093E+01 0. -1.
       -5    1    5    5    0  502  0.21747149279E+03  0.72894499933E+02 -0.44959650990E+03  0.50474406387E+03  0.46999998093E+01 0.  1.
       13    1    6    6    0    0  0.11679835741E+03  0.49074314583E+01 -0.12575592982E+03  0.17169884409E+03  0.00000000000E+00 0. -1.
      -13    1    4    4    0    0 -0.39020002792E+02 -0.40360871089E+02 -0.18244082900E+02  0.59028866615E+02  0.00000000000E+00 0.  1.
       14    1    4    4    0    0 -0.48582253242E+01  0.26846097563E+02  0.73142789001E+01  0.28245601136E+02  0.00000000000E+00 0. -1.
      -14    1    6    6    0    0 -0.12645600738E+02  0.13183957618E+02 -0.15426724329E+02  0.23910495186E+02  0.00000000000E+00 0.  1.
</event>
<event>
12   0  0.9284400E-04  0.3123044E+03  0.7546771E-02  0.1079247E+00
        2   -1    0    0  502    0  0.00000000000E+00  0.00000000000E+00  0.10375992301E+04  0.10375992301E+04  0.00000000000E+00 0.  1.
       -2   -1    0    0    0  501  0.00000000000E+00  0.00000000000E+00 -0.99209662805E+02  0.99209662805E+02  0.00000000000E+00 0. -1.
        6    2    1    2  502    0  0.11783025607E+03  0.22750827407E+03  0.34367700092E+03  0.46657203614E+03  0.18420532004E+03 0.  0.
       24    2    3    3    0    0  0.11794968005E+03  0.24703862048E+03  0.33496396649E+03  0.44467556016E+03  0.10293341502E+03 0.  0.
       -6    2    1    2    0  501 -0.11783025607E+03 -0.22750827407E+03  0.59471256633E+03  0.67023685672E+03  0.17288847140E+03 0.  0.
      -24    2    5    5    0    0 -0.13519604747E+03 -0.15867967541E+03  0.35521163059E+03  0.42039343591E+03  0.84250387594E+02 0.  0.
        5    1    3    3  502    0 -0.11942398488E+00 -0.19530346411E+02  0.87130344307E+01  0.21896475977E+02  0.46999998093E+01 0. -1.
       -5    1    5    5    0  501  0.17365791401E+02 -0.68828598655E+02  0.23950093574E+03  0.24984342081E+03  0.46999998093E+01 0.  1.
       13    1    6    6    0    0  0.10488383786E+02 -0.22831431902E+02  0.31344118973E+02  0.40171311546E+02  0.00000000000E+00 0. -1.
      -13    1    4    4    0    0 -0.13546838798E+02  0.35164475290E+02  0.77900949164E+02  0.86536784343E+02  0.00000000000E+00 0.  1.
       14    1    4    4    0    0  0.13149651885E+03  0.21187414519E+03  0.25706301733E+03  0.35813877582E+03  0.00000000000E+00 0. -1.
      -14    1    6    6    0    0 -0.14568443126E+03 -0.13584824351E+03  0.32386751162E+03  0.38022212436E+03  0.00000000000E+00 0.  1.
</event>
<event>
12   0  0.9284400E-04  0.2998538E+03  0.7546771E-02  0.1085381E+00
       21   -1    0    0  503  502  0.00000000000E+00  0.00000000000E+00  0.14830305647E+03  0.14830305647E+03  0.00000000000E+00 0. -1.
       21   -1    0    0  501  503  0.00000000000E+00  0.00000000000E+00 -0.64739819060E+03  0.64739819060E+03  0.00000000000E+00 0.  1.
        6    2    1    2  501    0  0.24292034717E+03  0.20524895637E+02 -0.35133914316E+03  0.46189987448E+03  0.17458732519E+03 0.  0.
       24    2    3    3    0    0  0.37700692849E+02 -0.83652968309E+01 -0.80841268238E+02  0.12110530281E+03  0.81485356273E+02 0.  0.
       -6    2    1    2    0  502 -0.24292034717E+03 -0.20524895637E+02 -0.14775599097E+03  0.33380137259E+03  0.17366622317E+03 0.  0.
      -24    2    5    5    0    0 -0.24991647923E+03  0.74280157606E+01 -0.10601711632E+03  0.28286479660E+03  0.79116636629E+02 0.  0.
        5    1    3    3  501    0  0.20521965432E+03  0.28890192468E+02 -0.27049787492E+03  0.34079457166E+03  0.46999998093E+01 0. -1.
       -5    1    5    5    0  502  0.69961320617E+01 -0.27952911398E+02 -0.41738874643E+02  0.50936575995E+02  0.46999998093E+01 0.  1.
       13    1    6    6    0    0 -0.12698672129E+02 -0.13375924224E+02  0.64161337042E+01  0.19527887607E+02  0.00000000000E+00 0. -1.
      -13    1    4    4    0    0  0.50980646729E+02  0.10402660136E+02 -0.83055848510E+02  0.98007732605E+02  0.00000000000E+00 0.  1.
       14    1    4    4    0    0 -0.13279953879E+02 -0.18767956967E+02  0.22145802719E+01  0.23097570209E+02  0.00000000000E+00 0. -1.
      -14    1    6    6    0    0 -0.23721780710E+03  0.20803939984E+02 -0.11243325003E+03  0.26333690899E+03  0.00000000000E+00 0.  1.
</event>
<event>
12   0  0.9284400E-04  0.3546231E+03  0.7546771E-02  0.1060733E+00
        2   -1    0    0  502    0  0.00000000000E+00  0.00000000000E+00  0.14853938154E+04  0.14853938154E+04  0.00000000000E+00 0.  1.
       -2   -1    0    0    0  501  0.00000000000E+00  0.00000000000E+00 -0.12411316223E+03  0.12411316223E+03  0.00000000000E+00 0. -1.
        6    2    1    2  502    0 -0.98566271925E+02  0.29379649796E+03  0.11337952591E+04  0.11878336166E+04  0.17153809796E+03 0.  0.
       24    2    3    3    0    0 -0.15352373051E+02  0.13047020326E+03  0.70456442503E+03  0.72107754498E+03  0.79269335502E+02 0.  0.
       -6    2    1    2    0  501  0.98566271925E+02 -0.29379649796E+03  0.22748539406E+03  0.42167336099E+03  0.17328337104E+03 0.  0.
      -24    2    5    5    0    0  0.13269656670E+03 -0.19428665767E+03  0.14345256588E+03  0.28694885859E+03  0.80033271999E+02 0.  0.
        5    1    3    3  502    0 -0.83213898875E+02  0.16332629471E+03  0.42923083404E+03  0.46675607162E+03  0.46999998093E+01 0. -1.
       -5    1    5    5    0  501 -0.34130294771E+02 -0.99509840292E+02  0.84032828176E+02  0.13472450239E+03  0.46999998093E+01 0.  1.
       13    1    6    6    0    0  0.57381027214E+02 -0.80466459390E+02  0.10704954017E+03  0.14569501508E+03  0.00000000000E+00 0. -1.
      -13    1    4    4    0    0 -0.32710945063E+02  0.13163313242E+03  0.63961753276E+03  0.65384086419E+03  0.00000000000E+00 0.  1.
       14    1    4    4    0    0  0.17358572013E+02 -0.11629291627E+01  0.64946892275E+02  0.67236680784E+02  0.00000000000E+00 0. -1.
      -14    1    6    6    0    0  0.75315539483E+02 -0.11382019828E+03  0.36403025719E+02  0.14125384351E+03  0.00000000000E+00 0.  1.
</event>
<event>
12   0  0.9284400E-04  0.1822824E+03  0.7546771E-02  0.1166604E+00
       21   -1    0    0  501  502  0.00000000000E+00  0.00000000000E+00  0.14426625576E+04  0.14426625576E+04  0.00000000000E+00 0.  1.
       21   -1    0    0  502  503  0.00000000000E+00  0.00000000000E+00 -0.24420429491E+02  0.24420429491E+02  0.00000000000E+00 0.  1.
       -6    2    1    2    0  503 -0.49818074752E+02  0.29426645197E+02  0.49674461350E+03  0.52772972280E+03  0.16851018149E+03 0.  0.
      -24    2    3    3    0    0 -0.55981307555E+02  0.41316289837E+02  0.50127558366E+03  0.51283110619E+03  0.82931237134E+02 0.  0.
        6    2    1    2  501    0  0.49818074752E+02 -0.29426645197E+02  0.92149751458E+03  0.93935326426E+03  0.17285577132E+03 0.  0.
       24    2    5    5    0    0  0.31952497773E+02 -0.49961747391E+02  0.28123424985E+03  0.29849445967E+03  0.80554955448E+02 0.  0.
        5    1    5    5  501    0  0.17865576979E+02  0.20535102194E+02  0.64026326472E+03  0.64085880459E+03  0.46999998093E+01 0. -1.
       -5    1    3    3    0  503  0.61632328021E+01 -0.11889644639E+02 -0.45309701640E+01  0.14898616616E+02  0.46999998093E+01 0.  1.
       13    1    4    4    0    0 -0.12968686066E+02  0.49662492540E+02  0.14390898267E+03  0.15278856395E+03  0.00000000000E+00 0. -1.
      -13    1    6    6    0    0  0.48537193747E+02 -0.29556832343E+01  0.11269295058E+03  0.12273669520E+03  0.00000000000E+00 0.  1.
       14    1    6    6    0    0 -0.16584695974E+02 -0.47006064157E+02  0.16854129928E+03  0.17575776447E+03  0.00000000000E+00 0. -1.
      -14    1    4    4    0    0 -0.43012621488E+02 -0.83462027034E+01  0.35736660100E+03  0.36004254223E+03  0.00000000000E+00 0.  1.
</event>
<event>
12   0  0.9284400E-04  0.3202824E+03  0.7546771E-02  0.1075625E+00
       21   -1    0    0  501  502  0.00000000000E+00  0.00000000000E+00  0.13127203482E+03  0.13127203482E+03  0.00000000000E+00 0.  1.
       21   -1    0    0  502  503  0.00000000000E+00  0.00000000000E+00 -0.10202648174E+04  0.10202648174E+04  0.00000000000E+00 0.  1.
       -6    2    1    2    0  503 -0.20863668608E+03  0.17104917103E+03 -0.16511518614E+03  0.36033854343E+03  0.17260867737E+03 0.  0.
      -24    2    3    3    0    0 -0.28959467869E+02  0.60826341224E+02 -0.24329108666E+02  0.10681184945E+03  0.79236172853E+02 0.  0.
        6    2    1    2  501    0  0.20863668608E+03 -0.17104917103E+03 -0.72387759643E+03  0.79119830877E+03  0.17090612482E+03 0.  0.
       24    2    5    5    0    0  0.13296474813E+03 -0.30443085103E+02 -0.39816262178E+03  0.42841924612E+03  0.80019818688E+02 0.  0.
        5    1    5    5  501    0  0.75671937949E+02 -0.14060608593E+03 -0.32571497465E+03  0.36277906265E+03  0.46999998093E+01 0. -1.
       -5    1    3    3    0  503 -0.17967721821E+03  0.11022282980E+03 -0.14078607747E+03  0.25352669398E+03  0.46999998093E+01 0.  1.
       13    1    4    4    0    0 -0.13304632482E+02  0.11364168291E+02 -0.47032087325E+02  0.50181418918E+02  0.00000000000E+00 0. -1.
      -13    1    6    6    0    0  0.13162973614E+03 -0.48138830023E+02 -0.34544210330E+03  0.37279214198E+03  0.00000000000E+00 0.  1.
       14    1    6    6    0    0  0.13350119927E+01  0.17695744920E+02 -0.52720518486E+02  0.55627104138E+02  0.00000000000E+00 0. -1.
      -14    1    4    4    0    0 -0.15654835387E+02  0.49462172933E+02  0.22702978660E+02  0.56630430532E+02  0.00000000000E+00 0.  1.
</event>
<event>
12   0  0.9284400E-04  0.2195138E+03  0.7546771E-02  0.1137817E+00
       21   -1    0    0  503  502  0.00000000000E+00  0.00000000000E+00  0.17420896445E+03  0.17420896445E+03  0.00000000000E+00 0.  1.
       21   -1    0    0  501  503  0.00000000000E+00  0.00000000000E+00 -0.48452756175E+03  0.48452756175E+03  0.00000000000E+00 0.  1.
        6    2    1    2  501    0  0.15321898193E+02 -0.10160590374E+03 -0.37866101892E+03  0.42883004357E+03  0.17306796001E+03 0.  0.
       24    2    3    3    0    0  0.20754131951E+01 -0.13445110723E+03 -0.34709371653E+03  0.38115550807E+03  0.82000400640E+02 0.  0.
       -6    2    1    2    0  502 -0.15321898193E+02  0.10160590374E+03  0.68342421616E+02  0.22990648263E+03  0.19397882338E+03 0.  0.
      -24    2    5    5    0    0 -0.40223638863E+02  0.68144682110E+02 -0.37603219755E+02  0.11594895122E+03  0.75950762529E+02 0.  0.
        5    1    3    3  501    0  0.13246484998E+02  0.32845203486E+02 -0.31567302385E+02  0.47674535498E+02  0.46999998093E+01 0. -1.
       -5    1    5    5    0  502  0.24901740670E+02  0.33461221629E+02  0.10594564137E+03  0.11395753141E+03  0.46999998093E+01 0.  1.
       13    1    6    6    0    0 -0.16145725487E+02  0.71017010907E+02 -0.19803148551E+01  0.72856172948E+02  0.00000000000E+00 0. -1.
      -13    1    4    4    0    0 -0.31134948667E+02 -0.47844753531E+02 -0.78970602167E+02  0.97441579809E+02  0.00000000000E+00 0.  1.
       14    1    4    4    0    0  0.33210361862E+02 -0.86606353695E+02 -0.26812311437E+03  0.28371392827E+03  0.00000000000E+00 0. -1.
      -14    1    6    6    0    0 -0.24077913377E+02 -0.28723287970E+01 -0.35622904900E+02  0.43092778267E+02  0.00000000000E+00 0.  1.
</event>
<event>
12   0  0.9284400E-04  0.1984607E+03  0.7546771E-02  0.1151307E+00
       21   -1    0    0  503  502  0.00000000000E+00  0.00000000000E+00  0.27263419972E+03  0.27263419972E+03  0.00000000000E+00 0.  1.
       21   -1    0    0  501  503  0.00000000000E+00  0.00000000000E+00 -0.20954373905E+03  0.20954373905E+03  0.00000000000E+00 0. -1.
        6    2    1    2  501    0 -0.93941653556E+02 -0.23825117653E+02 -0.10379538708E+03  0.22287594309E+03  0.17177756874E+03 0.  0.
       24    2    3    3    0    0 -0.14779428557E+02  0.45497024127E+02 -0.39545141759E+02  0.99496847491E+02  0.77764990266E+02 0.  0.
       -6    2    1    2    0  502  0.93941653556E+02  0.23825117653E+02  0.16688584776E+03  0.25930199568E+03  0.17318766781E+03 0.  0.
      -24    2    5    5    0    0  0.11217664759E+03  0.34438999155E+02  0.65781632114E+02  0.15591281875E+03  0.78815855001E+02 0.  0.
        5    1    3    3  501    0 -0.79162225000E+02 -0.69322141780E+02 -0.64250245322E+02  0.12337909560E+03  0.46999998093E+01 0. -1.
       -5    1    5    5    0  502 -0.18234994035E+02 -0.10613881502E+02  0.10110421564E+03  0.10338917693E+03  0.46999998093E+01 0.  1.
       13    1    6    6    0    0  0.36709633522E+02 -0.14289756281E+02 -0.73550247993E+01  0.40073566321E+02  0.00000000000E+00 0. -1.
      -13    1    4    4    0    0 -0.42126380363E+02  0.44351355466E+02 -0.38148911945E+02  0.72090319300E+02  0.00000000000E+00 0.  1.
       14    1    4    4    0    0  0.27346951807E+02  0.11456686609E+01 -0.13962298139E+01  0.27406528191E+02  0.00000000000E+00 0. -1.
      -14    1    6    6    0    0  0.75467014070E+02  0.48728755436E+02  0.73136656913E+02  0.11583925243E+03  0.00000000000E+00 0.  1.
</event>
<event>
12   0  0.9284400E-04  0.2967606E+03  0.7546771E-02  0.1086985E+00
       21   -1    0    0  503  502  0.00000000000E+00  0.00000000000E+00  0.10760253313E+04  0.10760253313E+04  0.00000000000E+00 0.  1.
       21   -1    0    0  501  503  0.00000000000E+00  0.00000000000E+00 -0.11061518495E+03  0.11061518495E+03  0.00000000000E+00 0.  1.
        6    2    1    2  501    0  0.69069052882E+02  0.23033227813E+03  0.17827588611E+03  0.34542283183E+03  0.17236922221E+03 0.  0.
       24    2    3    3    0    0  0.65449191873E+02  0.19755228881E+03  0.20479525079E+03  0.30284352001E+03  0.80390293776E+02 0.  0.
       -6    2    1    2    0  502 -0.69069052882E+02 -0.23033227813E+03  0.78713426020E+03  0.84121768438E+03  0.17390617159E+03 0.  0.
      -24    2    5    5    0    0 -0.50528926602E+02 -0.37473347406E+02  0.22261005560E+03  0.24435256476E+03  0.78711592924E+02 0.  0.
        5    1    3    3  501    0  0.36198610092E+01  0.32779989316E+02 -0.26519364681E+02  0.42579311815E+02  0.46999998093E+01 0. -1.
       -5    1    5    5    0  502 -0.18540126281E+02 -0.19285893072E+03  0.56452420460E+03  0.59686511962E+03  0.46999998093E+01 0.  1.
       13    1    6    6    0    0 -0.36474834493E+02  0.11970410490E+02  0.15346944248E+03  0.15819789523E+03  0.00000000000E+00 0. -1.
      -13    1    4    4    0    0  0.44123364438E+02  0.18786103067E+03  0.15393920761E+03  0.24685201594E+03  0.00000000000E+00 0.  1.
       14    1    4    4    0    0  0.21325827435E+02  0.96912581442E+01  0.50856043180E+02  0.55991504071E+02  0.00000000000E+00 0. -1.
      -14    1    6    6    0    0 -0.14054092108E+02 -0.49443757895E+02  0.69140613122E+02  0.86154669535E+02  0.00000000000E+00 0.  1.
</event>
<event>
12   0  0.9284400E-04  0.2107901E+03  0.7546771E-02  0.1141013E+00
       21   -1    0    0  503  502  0.00000000000E+00  0.00000000000E+00  0.10933429243E+03  0.10933429243E+03  0.00000000000E+00 0. -1.
       21   -1    0    0  501  503  0.00000000000E+00  0.00000000000E+00 -0.48047929750E+03  0.48047929750E+03  0.00000000000E+00 0. -1.
        6    2    1    2  501    0 -0.10006971274E+03 -0.66503731092E+02 -0.30178369242E+03  0.36790496317E+03  0.17275407739E+03 0.  0.
       24    2    3    3    0    0 -0.11197043098E+03 -0.58114623150E+02 -0.13799687069E+03  0.20340506287E+03  0.80098666935E+02 0.  0.
       -6    2    1    2    0  502  0.10006971274E+03  0.66503731092E+02 -0.69361312641E+02  0.22190862676E+03  0.17319282110E+03 0.  0.
      -24    2    5    5    0    0  0.10407907493E+03  0.79501445842E+02 -0.10305345051E+03  0.18527168193E+03  0.80948432559E+02 0.  0.
        5    1    3    3  501    0  0.11900718234E+02 -0.83891079421E+01 -0.16378682173E+03  0.16449990029E+03  0.46999998093E+01 0. -1.
       -5    1    5    5    0  502 -0.40093621865E+01 -0.12997714750E+02  0.33692137871E+02  0.36636944829E+02  0.46999998093E+01 0.  1.
       13    1    6    6    0    0  0.65338461636E+02  0.21401231459E+02 -0.91559922359E+02  0.11450042209E+03  0.00000000000E+00 0. -1.
      -13    1    4    4    0    0 -0.33855531460E+02 -0.19618165115E+02  0.12724833966E+01  0.39149567391E+02  0.00000000000E+00 0.  1.
       14    1    4    4    0    0 -0.78114899518E+02 -0.38496458035E+02 -0.13926935409E+03  0.16425549548E+03  0.00000000000E+00 0. -1.
      -14    1    6    6    0    0  0.38740613295E+02  0.58100214383E+02 -0.11493528153E+02  0.70771259839E+02  0.00000000000E+00 0.  1.
</event>
<event>
12   0  0.9284400E-04  0.2676529E+03  0.7546771E-02  0.1102648E+00
       21   -1    0    0  503  502  0.00000000000E+00  0.00000000000E+00  0.29746042544E+03  0.29746042544E+03  0.00000000000E+00 0.  1.
       21   -1    0    0  501  503  0.00000000000E+00  0.00000000000E+00 -0.34557725661E+03  0.34557725661E+03  0.00000000000E+00 0. -1.
        6    2    1    2  501    0  0.59418422719E+02  0.19449410554E+03 -0.20115795122E+03  0.33472018771E+03  0.17382340657E+03 0.  0.
       24    2    3    3    0    0  0.14944737907E+02  0.15887495515E+03 -0.21174350712E+03  0.27657574252E+03  0.78703443222E+02 0.  0.
       -6    2    1    2    0  502 -0.59418422719E+02 -0.19449410554E+03  0.15304112006E+03  0.30831749434E+03  0.17401030670E+03 0.  0.
      -24    2    5    5    0    0 -0.61621692054E+01 -0.15347902339E+03  0.16060078730E+03  0.24051112245E+03  0.91973932109E+02 0.  0.
        5    1    3    3  501    0  0.44473684811E+02  0.35619150385E+02  0.10585555897E+02  0.58144445192E+02  0.46999998093E+01 0. -1.
       -5    1    5    5    0  502 -0.53256253513E+02 -0.41015082146E+02 -0.75596672441E+01  0.67806371889E+02  0.46999998093E+01 0.  1.
       13    1    6    6    0    0 -0.13825507658E+02 -0.10408080776E+03  0.44367991591E+02  0.11398455108E+03  0.00000000000E+00 0. -1.
      -13    1    4    4    0    0  0.13882140117E+02  0.34084528905E+02 -0.80186054790E+01  0.37666523050E+02  0.00000000000E+00 0.  1.
       14    1    4    4    0    0  0.10625977909E+01  0.12479042625E+03 -0.20372490164E+03  0.23890921947E+03  0.00000000000E+00 0. -1.
      -14    1    6    6    0    0  0.76633384531E+01 -0.49398215633E+02  0.11623279571E+03  0.12652657137E+03  0.00000000000E+00 0.  1.
</event>
<event>
12   0  0.9284400E-04  0.1881820E+03  0.7546771E-02  0.1160307E+00
       21   -1    0    0  501  502  0.00000000000E+00  0.00000000000E+00  0.45736786955E+02  0.45736786955E+02  0.00000000000E+00 0. -1.
       21   -1    0    0  502  503  0.00000000000E+00  0.00000000000E+00 -0.16395296982E+04  0.16395296982E+04  0.00000000000E+00 0.  1.
       -6    2    1    2    0  503  0.66776130186E+02  0.28539376253E+02 -0.14094282909E+04  0.14218224193E+04  0.17267697412E+03 0.  0.
      -24    2    3    3    0    0  0.32336112172E+02 -0.30346574264E+02 -0.41505206866E+03  0.42509786794E+03  0.80457683962E+02 0.  0.
        6    2    1    2  501    0 -0.66776130186E+02 -0.28539376253E+02 -0.18436462036E+03  0.26344406583E+03  0.17360563073E+03 0.  0.
       24    2    5    5    0    0 -0.53518924635E+02  0.45006935790E+02 -0.73075076541E+02  0.12930881291E+03  0.80566138800E+02 0.  0.
        5    1    5    5  501    0 -0.13257205551E+02 -0.73546312044E+02 -0.11128954382E+03  0.13413525292E+03  0.46999998093E+01 0. -1.
       -5    1    3    3    0  503  0.34440018014E+02  0.58885950517E+02 -0.99437622220E+03  0.99672455136E+03  0.46999998093E+01 0.  1.
       13    1    4    4    0    0  0.10513436006E+01  0.26677537968E+02 -0.11080256942E+03  0.11397370638E+03  0.00000000000E+00 0. -1.
      -13    1    6    6    0    0 -0.74568433851E+02  0.40919864935E+02 -0.61303119051E+02  0.10484731317E+03  0.00000000000E+00 0.  1.
       14    1    6    6    0    0  0.21049509216E+02  0.40870708552E+01 -0.11771957490E+02  0.24461499740E+02  0.00000000000E+00 0. -1.
      -14    1    4    4    0    0  0.31284768572E+02 -0.57024112231E+02 -0.30424949924E+03  0.31112416156E+03  0.00000000000E+00 0.  1.
</event>
<event>
12   0  0.9284400E-04  0.1772702E+03  0.7546771E-02  0.1170480E+00
       21   -1    0    0  501  502  0.00000000000E+00  0.00000000000E+00  0.26122785160E+03  0.26122785160E+03  0.00000000000E+00 0.  1.
       21   -1    0    0  502  503  0.00000000000E+00  0.00000000000E+00 -0.27720956332E+03  0.27720956332E+03  0.00000000000E+00 0.  1.
       -6    2    1    2    0  503  0.68431129340E+01 -0.42740715461E+02 -0.21055515127E+03  0.27524205370E+03  0.17190439042E+03 0.  0.
      -24    2    3    3    0    0  0.66762940813E+02 -0.30096321083E+02 -0.85423161495E+02  0.13584918679E+03  0.76123624607E+02 0.  0.
        6    2    1    2  501    0 -0.68431129340E+01  0.42740715461E+02  0.19457343955E+03  0.26319536122E+03  0.17187023546E+03 0.  0.
       24    2    5    5    0    0  0.16808489706E+02  0.69419742753E+02  0.19972752628E+03  0.22686598725E+03  0.80470276538E+02 0.  0.
        5    1    5    5  501    0 -0.23651602640E+02 -0.26679027292E+02 -0.51540867313E+01  0.36329373969E+02  0.46999998093E+01 0. -1.
       -5    1    3    3    0  503 -0.59919827879E+02 -0.12644394378E+02 -0.12513198977E+03  0.13939286691E+03  0.46999998093E+01 0.  1.
       13    1    4    4    0    0  0.44756032049E+01  0.17542273263E+02  0.22273195871E+01  0.18240705245E+02  0.00000000000E+00 0. -1.
      -13    1    6    6    0    0  0.34744207884E+02  0.50978943096E+02  0.64656312968E+02  0.89366948182E+02  0.00000000000E+00 0.  1.
       14    1    6    6    0    0 -0.17935718177E+02  0.18440799657E+02  0.13507121332E+03  0.13749903907E+03  0.00000000000E+00 0. -1.
      -14    1    4    4    0    0  0.62287337608E+02 -0.47638594346E+02 -0.87650481083E+02  0.11760848155E+03  0.00000000000E+00 0.  1.
</event>
<event>
12   0  0.9284400E-04  0.2800177E+03  0.7546771E-02  0.1096227E+00
       21   -1    0    0  501  502  0.00000000000E+00  0.00000000000E+00  0.89441876759E+02  0.89441876759E+02  0.00000000000E+00 0. -1.
       21   -1    0    0  502  503  0.00000000000E+00  0.00000000000E+00 -0.86983615255E+03  0.86983615255E+03  0.00000000000E+00 0. -1.
       -6    2    1    2    0  503 -0.19951098448E+03  0.79861348666E+02 -0.42592569480E+03  0.50755033075E+03  0.17324021707E+03 0.  0.
      -24    2    3    3    0    0 -0.17669335745E+03  0.12159160308E+02 -0.36493451851E+03  0.41349585719E+03  0.80207439621E+02 0.  0.
        6    2    1    2  501    0  0.19951098448E+03 -0.79861348666E+02 -0.35446858100E+03  0.45172769856E+03  0.17952011251E+03 0.  0.
       24    2    5    5    0    0  0.48417473047E+02 -0.58468540551E+02 -0.22917389287E+03  0.25422390035E+03  0.79663645460E+02 0.  0.
        5    1    5    5  501    0  0.15109351144E+03 -0.21392808115E+02 -0.12529468813E+03  0.19750379821E+03  0.46999998093E+01 0. -1.
       -5    1    3    3    0  503 -0.22817627027E+02  0.67702188358E+02 -0.60991176290E+02  0.94054473551E+02  0.46999998093E+01 0.  1.
       13    1    4    4    0    0 -0.91339566851E+02  0.45739813478E+02 -0.20777782220E+03  0.23153114349E+03  0.00000000000E+00 0. -1.
      -13    1    6    6    0    0 -0.16169393682E+01 -0.59927326780E+02 -0.12161950744E+03  0.13559204836E+03  0.00000000000E+00 0.  1.
       14    1    6    6    0    0  0.50034412415E+02  0.14587862292E+01 -0.10755438543E+03  0.11863185199E+03  0.00000000000E+00 0. -1.
      -14    1    4    4    0    0 -0.85353790604E+02 -0.33580653169E+02 -0.15715669631E+03  0.18196471370E+03  0.00000000000E+00 0.  1.
</event>
<event>
12   0  0.9284400E-04  0.1775726E+03  0.7546771E-02  0.1170387E+00
       21   -1    0    0  503  502  0.00000000000E+00  0.00000000000E+00  0.72397644789E+03  0.72397644789E+03  0.00000000000E+00 0.  1.
       21   -1    0    0  501  503  0.00000000000E+00  0.00000000000E+00 -0.43550503210E+02  0.43550503210E+02  0.00000000000E+00 0.  1.
        6    2    1    2  501    0 -0.75334877281E+01 -0.37941181472E+02  0.31281548909E+03  0.35927523179E+03  0.17242063471E+03 0.  0.
       24    2    3    3    0    0  0.16223447317E+02  0.27786948284E+02  0.89291609992E+02  0.12503263633E+03  0.81393204839E+02 0.  0.
       -6    2    1    2    0  502  0.75334877281E+01  0.37941181472E+02  0.36761045559E+03  0.40825171931E+03  0.17330820111E+03 0.  0.
      -24    2    5    5    0    0  0.67395907058E+02  0.17807134102E+02  0.29414263932E+03  0.31125430111E+03  0.74162290840E+02 0.  0.
        5    1    3    3  501    0 -0.23756935045E+02 -0.65728129756E+02  0.22352387910E+03  0.23424259547E+03  0.46999998093E+01 0. -1.
       -5    1    5    5    0  502 -0.59862419330E+02  0.20134047369E+02  0.73467816273E+02  0.96997418201E+02  0.46999998093E+01 0.  1.
       13    1    6    6    0    0 -0.10552613717E+02 -0.13125980200E+02  0.34259426287E+02  0.38175349402E+02  0.00000000000E+00 0. -1.
      -13    1    4    4    0    0 -0.12028798467E+02  0.49810727340E+02  0.46186542806E+02  0.68985486061E+02  0.00000000000E+00 0.  1.
       14    1    4    4    0    0  0.28252245784E+02 -0.22023779056E+02  0.43105067186E+02  0.56047150265E+02  0.00000000000E+00 0. -1.
      -14    1    6    6    0    0  0.77948520775E+02  0.30933114303E+02  0.25988321303E+03  0.27307895171E+03  0.00000000000E+00 0.  1.
</event>
<event>
12   0  0.9284400E-04  0.2006981E+03  0.7546771E-02  0.1149235E+00
       21   -1    0    0  503  502  0.00000000000E+00  0.00000000000E+00  0.25472966580E+03  0.25472966580E+03  0.00000000000E+00 0. -1.
       21   -1    0    0  501  503  0.00000000000E+00  0.00000000000E+00 -0.26825939969E+03  0.26825939969E+03  0.00000000000E+00 0.  1.
        6    2    1    2  501    0  0.10083194302E+03  0.10530952453E+02 -0.17454684552E+03  0.26568335342E+03  0.17275144372E+03 0.  0.
       24    2    3    3    0    0  0.61980780544E+02 -0.23296450608E+02 -0.25295164878E+02  0.10772177519E+03  0.81115927628E+02 0.  0.
       -6    2    1    2    0  502 -0.10083194302E+03 -0.10530952453E+02  0.16101711163E+03  0.25730571207E+03  0.17321009650E+03 0.  0.
      -24    2    5    5    0    0 -0.75039469522E+02 -0.60655759302E+02  0.81588789543E+02  0.15979316775E+03  0.97811465370E+02 0.  0.
        5    1    3    3  501    0  0.38851162477E+02  0.33827403061E+02 -0.14925168064E+03  0.15796157823E+03  0.46999998093E+01 0. -1.
       -5    1    5    5    0  502 -0.25792473500E+02  0.50124806849E+02  0.79428322089E+02  0.97512544315E+02  0.46999998093E+01 0.  1.
       13    1    6    6    0    0 -0.55577350784E+02 -0.87526044046E+02  0.67694317943E+02  0.12382314399E+03  0.00000000000E+00 0. -1.
      -13    1    4    4    0    0  0.95307152546E+01  0.31642211355E+01 -0.44730255324E+02  0.45843675354E+02  0.00000000000E+00 0.  1.
       14    1    4    4    0    0  0.52450065290E+02 -0.26460671744E+02  0.19435090446E+02  0.61878099831E+02  0.00000000000E+00 0. -1.
      -14    1    6    6    0    0 -0.19462118738E+02  0.26870284745E+02  0.13894471600E+02  0.35970023757E+02  0.00000000000E+00 0.  1.
</event>
<event>
12   0  0.9284400E-04  0.1827827E+03  0.7546771E-02  0.1165623E+00
       21   -1    0    0  503  502  0.00000000000E+00  0.00000000000E+00  0.68938327624E+03  0.68938327624E+03  0.00000000000E+00 0. -1.
       21   -1    0    0  501  503  0.00000000000E+00  0.00000000000E+00 -0.18304537411E+03  0.18304537411E+03  0.00000000000E+00 0. -1.
        6    2    1    2  501    0  0.48882186827E+02 -0.21910845919E+02 -0.12124307969E+03  0.21933859200E+03  0.17475691749E+03 0.  0.
       24    2    3    3    0    0  0.28954489352E+02  0.12169738401E+01 -0.15292364913E+03  0.17509203675E+03  0.80198100932E+02 0.  0.
       -6    2    1    2    0  502 -0.48882186827E+02  0.21910845919E+02  0.62758098183E+03  0.65309005836E+03  0.17262439636E+03 0.  0.
      -24    2    5    5    0    0 -0.17548051331E+02  0.77421693583E+02  0.32683175461E+03  0.34562384895E+03  0.79591434225E+02 0.  0.
        5    1    3    3  501    0  0.19927697475E+02 -0.23127819760E+02  0.31680569433E+02  0.44246555247E+02  0.46999998093E+01 0. -1.
       -5    1    5    5    0  502 -0.31334135496E+02 -0.55510847664E+02  0.30074922722E+03  0.30746620940E+03  0.46999998093E+01 0.  1.
       13    1    6    6    0    0 -0.27674122701E+02 -0.31148668068E+01  0.12534452666E+03  0.12840097284E+03  0.00000000000E+00 0. -1.
      -13    1    4    4    0    0 -0.22183466305E+02 -0.18131472812E+02 -0.71372432398E+02  0.76908260870E+02  0.00000000000E+00 0.  1.
       14    1    4    4    0    0  0.51137955658E+02  0.19348446652E+02 -0.81551216727E+02  0.98183775881E+02  0.00000000000E+00 0. -1.
      -14    1    6    6    0    0  0.10126071369E+02  0.80536560390E+02  0.20148722795E+03  0.21722287612E+03  0.00000000000E+00 0.  1.
</event>
<event>
12   0  0.9284400E-04  0.2240449E+03  0.7546771E-02  0.1130903E+00
       -2   -1    0    0    0  501  0.00000000000E+00  0.00000000000E+00  0.10495069724E+03  0.10495069724E+03  0.00000000000E+00 0.  1.
        2   -1    0    0  502    0  0.00000000000E+00  0.00000000000E+00 -0.49142898772E+03  0.49142898772E+03  0.00000000000E+00 0. -1.
        6    2    1    2  502    0  0.10119744530E+03 -0.95072018432E+02 -0.14555659833E+03  0.26823800130E+03  0.17744094904E+03 0.  0.
       24    2    3    3    0    0  0.41947970514E+02  0.18028219673E+02 -0.36888577554E+02  0.10050907457E+03  0.81588344647E+02 0.  0.
       -6    2    1    2    0  501 -0.10119744530E+03  0.95072018432E+02 -0.24092169215E+03  0.32814168366E+03  0.17422425544E+03 0.  0.
      -24    2    5    5    0    0 -0.29892163418E+02  0.10441824181E+03 -0.91884003734E+02  0.16259375198E+03  0.78723232814E+02 0.  0.
        5    1    3    3  502    0  0.59249474790E+02 -0.11310023810E+03 -0.10866802078E+03  0.16772892672E+03  0.46999998093E+01 0. -1.
       -5    1    5    5    0  501 -0.71305281886E+02 -0.93462233794E+01 -0.14903768842E+03  0.16554793168E+03  0.46999998093E+01 0.  1.
       13    1    6    6    0    0  0.22648459079E+02  0.14041181309E+02 -0.60378401239E+01  0.27323304788E+02  0.00000000000E+00 0. -1.
      -13    1    4    4    0    0  0.10586759323E+02 -0.27575245942E+02  0.64259436805E+01  0.30228569498E+02  0.00000000000E+00 0.  1.
       14    1    4    4    0    0  0.31361211191E+02  0.45603465615E+02 -0.43314521234E+02  0.70280505072E+02  0.00000000000E+00 0. -1.
      -14    1    6    6    0    0 -0.52540622497E+02  0.90377060502E+02 -0.85846163610E+02  0.13527044719E+03  0.00000000000E+00 0.  1.
</event>
<event>
12   0  0.9284400E-04  0.3151130E+03  0.7546771E-02  0.1077966E+00
       21   -1    0    0  501  502  0.00000000000E+00  0.00000000000E+00  0.18316240874E+03  0.18316240874E+03  0.00000000000E+00 0. -1.
       21   -1    0    0  502  503  0.00000000000E+00  0.00000000000E+00 -0.57645221685E+03  0.57645221685E+03  0.00000000000E+00 0.  1.
       -6    2    1    2    0  503 -0.30931799315E+02  0.25872837485E+03 -0.29033391606E+03  0.42847403989E+03  0.17719783264E+03 0.  0.
      -24    2    3    3    0    0 -0.26487122608E+02  0.14846502276E+03 -0.75913956976E+02  0.18727750009E+03  0.81033959104E+02 0.  0.
        6    2    1    2  501    0  0.30931799315E+02 -0.25872837485E+03 -0.10295589206E+03  0.33114058570E+03  0.17651352250E+03 0.  0.
       24    2    5    5    0    0  0.42590186745E+02 -0.23436265023E+03 -0.13802463586E+03  0.28662639331E+03  0.79775393522E+02 0.  0.
        5    1    5    5  501    0 -0.11658387430E+02 -0.24365724621E+02  0.35068743799E+02  0.44514192384E+02  0.46999998093E+01 0. -1.
       -5    1    3    3    0  503 -0.44446767061E+01  0.11026335208E+03 -0.21441995908E+03  0.24119653980E+03  0.46999998093E+01 0.  1.
       13    1    4    4    0    0  0.23071057656E+01 -0.97370467411E+01 -0.76062804584E+01  0.12569340423E+02  0.00000000000E+00 0. -1.
      -13    1    6    6    0    0 -0.18070012435E+02 -0.21578243075E+02 -0.27283647538E+02  0.39198767156E+02  0.00000000000E+00 0.  1.
       14    1    6    6    0    0  0.60660199180E+02 -0.21278440715E+03 -0.11074098832E+03  0.24742762616E+03  0.00000000000E+00 0. -1.
      -14    1    4    4    0    0 -0.28794228374E+02  0.15820206950E+03 -0.68307676518E+02  0.17470815967E+03  0.00000000000E+00 0.  1.
</event>
<event>
12   0  0.9284400E-04  0.1858085E+03  0.7546771E-02  0.1162399E+00
       21   -1    0    0  503  502  0.00000000000E+00  0.00000000000E+00  0.94114524804E+03  0.94114524804E+03  0.00000000000E+00 0. -1.
       21   -1    0    0  501  503  0.00000000000E+00  0.00000000000E+00 -0.63881774077E+02  0.63881774077E+02  0.00000000000E+00 0. -1.
        6    2    1    2  501    0 -0.57077950259E+02  0.31864866390E+02  0.11051822261E+03  0.21619225490E+03  0.17392973131E+03 0.  0.
       24    2    3    3    0    0 -0.64948606497E+02  0.43675228927E+02  0.78707703091E+01  0.11246173213E+03  0.80373161318E+02 0.  0.
       -6    2    1    2    0  502  0.57077950259E+02 -0.31864866390E+02  0.76674525136E+03  0.78883476722E+03  0.17346108318E+03 0.  0.
      -24    2    5    5    0    0  0.84010304284E+01  0.31009852078E+02  0.57002434227E+03  0.57659933470E+03  0.80665071478E+02 0.  0.
        5    1    3    3  501    0  0.78706562378E+01 -0.11810362537E+02  0.10264745230E+03  0.10373052277E+03  0.46999998093E+01 0. -1.
       -5    1    5    5    0  502  0.48676919831E+02 -0.62874718468E+02  0.19672090909E+03  0.21223543252E+03  0.46999998093E+01 0.  1.
       13    1    6    6    0    0  0.42853769346E+02  0.62012762916E+01  0.24258636509E+03  0.24642046567E+03  0.00000000000E+00 0. -1.
      -13    1    4    4    0    0 -0.62994152996E+02  0.61608489321E+01  0.28711866215E+02  0.69502450553E+02  0.00000000000E+00 0.  1.
       14    1    4    4    0    0 -0.19544535008E+01  0.37514379995E+02 -0.20841095906E+02  0.42959281575E+02  0.00000000000E+00 0. -1.
      -14    1    6    6    0    0 -0.34452738918E+02  0.24808575786E+02  0.32743797718E+03  0.33017886903E+03  0.00000000000E+00 0.  1.
</event>
<event>
12   0  0.9284400E-04  0.1968071E+03  0.7546771E-02  0.1152531E+00
       21   -1    0    0  501  502  0.00000000000E+00  0.00000000000E+00  0.25471991801E+03  0.25471991801E+03  0.00000000000E+00 0. -1.
       21   -1    0    0  502  503  0.00000000000E+00  0.00000000000E+00 -0.17606465746E+03  0.17606465746E+03  0.00000000000E+00 0. -1.
       -6    2    1    2    0  503  0.53009760712E+02  0.77155180556E+02  0.11924381564E+03  0.22983567255E+03  0.17274950707E+03 0.  0.
      -24    2    3    3    0    0  0.56138889493E+02 -0.16690033042E+02  0.40565956286E+02  0.10724280525E+03  0.80157908859E+02 0.  0.
        6    2    1    2  501    0 -0.53009760712E+02 -0.77155180556E+02 -0.40588555088E+02  0.20094890292E+03  0.17311867075E+03 0.  0.
       24    2    5    5    0    0 -0.64401509130E+02  0.12309877774E+02 -0.19715826600E+00  0.10201800012E+03  0.78157187815E+02 0.  0.
        5    1    5    5  501    0  0.11391748418E+02 -0.89465058330E+02 -0.40391396822E+02  0.98930902803E+02  0.46999998093E+01 0. -1.
       -5    1    3    3    0  503 -0.31291287817E+01  0.93845213598E+02  0.78677859354E+02  0.12259286730E+03  0.46999998093E+01 0.  1.
       13    1    4    4    0    0  0.28595399633E+02  0.28062457378E+02  0.37059577953E+02  0.54576649882E+02  0.00000000000E+00 0. -1.
      -13    1    6    6    0    0 -0.34215470053E+02  0.45638515216E+02 -0.85791572165E+00  0.57046546622E+02  0.00000000000E+00 0.  1.
       14    1    6    6    0    0 -0.30186039076E+02 -0.33328637443E+02  0.66075745564E+00  0.44971453493E+02  0.00000000000E+00 0. -1.
      -14    1    4    4    0    0  0.27543489860E+02 -0.44752490421E+02  0.35063783326E+01  0.52666155371E+02  0.00000000000E+00 0.  1.
</event>
<event>
12   0  0.9284400E-04  0.1719406E+03  0.7546771E-02  0.1176671E+00
       21   -1    0    0  503  502  0.00000000000E+00  0.00000000000E+00  0.74469687032E+03  0.74469687032E+03  0.00000000000E+00 0.  1.
       21   -1    0    0  501  503  0.00000000000E+00  0.00000000000E+00 -0.16529718637E+03  0.16529718637E+03  0.00000000000E+00 0.  1.
        6    2    1    2  501    0 -0.10597784484E+02 -0.13278647976E+02 -0.10871381834E+03  0.20072418195E+03  0.16787753689E+03 0.  0.
       24    2    3    3    0    0 -0.19738795690E+00 -0.30988117566E+01  0.10487776816E+02  0.80545533263E+02  0.79799422741E+02 0.  0.
       -6    2    1    2    0  502  0.10597784484E+02  0.13278647976E+02  0.68811350229E+03  0.70926987474E+03  0.17109917489E+03 0.  0.
      -24    2    5    5    0    0 -0.57112677780E+02  0.11027833398E+01  0.46272844073E+03  0.47357202928E+03  0.83004716511E+02 0.  0.
        5    1    3    3  501    0 -0.10400396527E+02 -0.10179836220E+02 -0.11920159516E+03  0.12017864869E+03  0.46999998093E+01 0. -1.
       -5    1    5    5    0  502  0.67710462264E+02  0.12175864636E+02  0.22538506157E+03  0.23569784546E+03  0.46999998093E+01 0.  1.
       13    1    6    6    0    0 -0.63116682692E+02  0.23210575909E+02  0.22751679966E+03  0.23724742484E+03  0.00000000000E+00 0. -1.
      -13    1    4    4    0    0  0.28771908750E+02 -0.16938144127E+02 -0.17729203859E+02  0.37802752930E+02  0.00000000000E+00 0.  1.
       14    1    4    4    0    0 -0.28969296707E+02  0.13839332371E+02  0.28216980675E+02  0.42742780333E+02  0.00000000000E+00 0. -1.
      -14    1    6    6    0    0  0.60040049116E+01 -0.22107792570E+02  0.23521164107E+03  0.23632460443E+03  0.00000000000E+00 0.  1.
</event>
<event>
12   0  0.9284400E-04  0.1828415E+03  0.7546771E-02  0.1166521E+00
       21   -1    0    0  503  502  0.00000000000E+00  0.00000000000E+00  0.13686238553E+03  0.13686238553E+03  0.00000000000E+00 0.  1.
       21   -1    0    0  501  503  0.00000000000E+00  0.00000000000E+00 -0.52331512915E+03  0.52331512915E+03  0.00000000000E+00 0.  1.
        6    2    1    2  501    0  0.26245642334E+02 -0.55256794824E+02 -0.43619464634E+03  0.47069063250E+03  0.16595708756E+03 0.  0.
       24    2    3    3    0    0  0.72480919657E+02 -0.15140732023E+02 -0.21400434997E+03  0.24017465222E+03  0.80020474156E+02 0.  0.
       -6    2    1    2    0  502 -0.26245642334E+02  0.55256794824E+02  0.49741902727E+02  0.18948688218E+03  0.17230459807E+03 0.  0.
      -24    2    5    5    0    0 -0.33194865798E+02 -0.24333445899E+02 -0.71789170718E+01  0.91278084967E+02  0.81155013648E+02 0.  0.
        5    1    3    3  501    0 -0.46235277323E+02 -0.40116062800E+02 -0.22219029637E+03  0.23051598028E+03  0.46999998093E+01 0. -1.
       -5    1    5    5    0  502  0.69492234640E+01  0.79590240723E+02  0.56920819799E+02  0.98208797212E+02  0.46999998093E+01 0.  1.
       13    1    6    6    0    0  0.19898479205E+02 -0.21580246330E+02 -0.21302728870E+02  0.36269308839E+02  0.00000000000E+00 0. -1.
      -13    1    4    4    0    0  0.53202520747E+02 -0.17407354320E+02 -0.50095672246E+02  0.75120573587E+02  0.00000000000E+00 0.  1.
       14    1    4    4    0    0  0.19278398909E+02  0.22666222968E+01 -0.16390867773E+03  0.16505407864E+03  0.00000000000E+00 0. -1.
      -14    1    6    6    0    0 -0.53093345002E+02 -0.27531995697E+01  0.14123811798E+02  0.55008776128E+02  0.00000000000E+00 0.  1.
</event>
<event>
12   0  0.9284400E-04  0.3029193E+03  0.7546771E-02  0.1083790E+00
        2   -1    0    0  502    0  0.00000000000E+00  0.00000000000E+00  0.97039819374E+03  0.97039819374E+03  0.00000000000E+00 0. -1.
       -2   -1    0    0    0  501  0.00000000000E+00  0.00000000000E+00 -0.94560203244E+02  0.94560203244E+02  0.00000000000E+00 0.  1.
        6    2    1    2  502    0 -0.17801448534E+03 -0.17221623806E+03  0.43572864310E+03  0.53042606628E+03  0.17362249775E+03 0.  0.
       24    2    3    3    0    0 -0.19493915532E+03 -0.14995762097E+03  0.42930674506E+03  0.50135337700E+03  0.81008424968E+02 0.  0.
       -6    2    1    2    0  501  0.17801448534E+03  0.17221623806E+03  0.44010934739E+03  0.53453233070E+03  0.17515988486E+03 0.  0.
      -24    2    5    5    0    0  0.15331463371E+03  0.89717435493E+02  0.19917941374E+03  0.27863106454E+03  0.80051459250E+02 0.  0.
        5    1    3    3  502    0  0.16924669985E+02 -0.22258617091E+02  0.64218980456E+01  0.29072689274E+02  0.46999998093E+01 0. -1.
       -5    1    5    5    0  501  0.24699851627E+02  0.82498802571E+02  0.24092993365E+03  0.25590126616E+03  0.46999998093E+01 0.  1.
       13    1    6    6    0    0  0.20508528526E+02 -0.11009623182E+02  0.49101262752E+02  0.54339171403E+02  0.00000000000E+00 0. -1.
      -13    1    4    4    0    0 -0.34156636517E+02 -0.13991981900E+01  0.27857755400E+02  0.44098618001E+02  0.00000000000E+00 0.  1.
       14    1    4    4    0    0 -0.16078251881E+03 -0.14855842278E+03  0.40144898966E+03  0.45725475900E+03  0.00000000000E+00 0. -1.
      -14    1    6    6    0    0  0.13280610519E+03  0.10072705867E+03  0.15007815099E+03  0.22429189314E+03  0.00000000000E+00 0.  1.
</event>
<event>
11   0  0.9284400E-04  0.1790806E+03  0.7546771E-02  0.1168957E+00
       21   -1    0    0  501  502  0.00000000000E+00  0.00000000000E+00  0.19607250175E+03  0.19607250175E+03  0.00000000000E+00 0. -1.
       21   -1    0    0  502  503  0.00000000000E+00  0.00000000000E+00 -0.16626677326E+03  0.16626677326E+03  0.00000000000E+00 0. -1.
        6    2    1    2  501    0  0.42606550752E+02  0.29692963129E+02  0.41899319632E+02  0.18391683979E+03  0.17138512405E+03 0.  0.
       -6    2    1    2    0  503 -0.42606550752E+02 -0.29692963129E+02 -0.12093591143E+02  0.17842243522E+03  0.17026837703E+03 0.  0.
      -24    2    4    4    0    0 -0.86335429150E+02 -0.52685348942E+02 -0.17791245833E+02  0.12846827745E+03  0.77188195750E+02 0.  0.
        5    1    3    3  501    0 -0.33590172401E+02 -0.45473303141E+02  0.37309568503E+02  0.67898563170E+02  0.46999998093E+01 0. -1.
       -5    1    4    4    0  503  0.43728878398E+02  0.22992385813E+02  0.56976546899E+01  0.49954157770E+02  0.46999998093E+01 0.  1.
       13    1    5    5    0    0 -0.45195514569E+02  0.71578462938E+01 -0.30157324929E+02  0.54802678288E+02  0.00000000000E+00 0. -1.
      -13    1    3    3    0    0  0.23362743901E+02  0.41997147314E+00 -0.52746854358E+01  0.23954466912E+02  0.00000000000E+00 0.  1.
       14    1    3    3    0    0  0.52833979252E+02  0.74746294796E+02  0.98644365643E+01  0.92063809708E+02  0.00000000000E+00 0. -1.
      -14    1    5    5    0    0 -0.41139914581E+02 -0.59843195236E+02  0.12366079096E+02  0.73665599162E+02  0.00000000000E+00 0.  1.
</event>
<event>
12   0  0.9284400E-04  0.3196460E+03  0.7546771E-02  0.1075863E+00
       21   -1    0    0  501  502  0.00000000000E+00  0.00000000000E+00  0.92869844554E+03  0.92869844554E+03  0.00000000000E+00 0. -1.
       21   -1    0    0  502  503  0.00000000000E+00  0.00000000000E+00 -0.13118964115E+03  0.13118964115E+03  0.00000000000E+00 0.  1.
        6    2    1    2  501    0  0.14776889453E+03 -0.22372709285E+03  0.61216958067E+03  0.69039625943E+03  0.17322223086E+03 0.  0.
       24    2    3    3    0    0  0.11185791457E+02 -0.47999139891E+02  0.24865564852E+03  0.26413375068E+03  0.74215681271E+02 0.  0.
       -6    2    1    2    0  503 -0.14776889453E+03  0.22372709285E+03  0.18533922371E+03  0.36949182727E+03  0.17402334414E+03 0.  0.
      -24    2    5    5    0    0 -0.50039549862E+02  0.16668135252E+03  0.16769905520E+03  0.25486850136E+03  0.80921876161E+02 0.  0.
        5    1    3    3  501    0  0.13658310307E+03 -0.17572795295E+03  0.36351393216E+03  0.42626250875E+03  0.46999998093E+01 0. -1.
       -5    1    5    5    0  503 -0.97729344669E+02  0.57045740325E+02  0.17640168511E+02  0.11462332591E+03  0.46999998093E+01 0.  1.
       13    1    6    6    0    0 -0.56908744953E+02  0.13172293112E+03  0.89970763348E+02  0.16936432355E+03  0.00000000000E+00 0. -1.
      -13    1    4    4    0    0  0.48414999185E+01 -0.45824331825E+02  0.61448113520E+02  0.76806120614E+02  0.00000000000E+00 0.  1.
       14    1    4    4    0    0  0.63442915389E+01 -0.21748080660E+01  0.18720753500E+03  0.18732763006E+03  0.00000000000E+00 0. -1.
      -14    1    6    6    0    0  0.68691950907E+01  0.34958421400E+02  0.77728291854E+02  0.85504177808E+02  0.00000000000E+00 0.  1.
</event>
<event>
12   0  0.9284400E-04  0.2063971E+03  0.7546771E-02  0.1144918E+00
       21   -1    0    0  503  502  0.00000000000E+00  0.00000000000E+00  0.72174834446E+02  0.72174834446E+02  0.00000000000E+00 0.  1.
       21   -1    0    0  501  503  0.00000000000E+00  0.00000000000E+00 -0.58411934619E+03  0.58411934619E+03  0.00000000000E+00 0. -1.
        6    2    1    2  501    0  0.36684559173E+02 -0.10575653027E+03 -0.24858465643E+03  0.32310074278E+03  0.17340576114E+03 0.  0.
       24    2    3    3    0    0  0.10443310435E+02 -0.12963603321E+02 -0.20489864498E+03  0.21713052044E+03  0.69893422074E+02 0.  0.
       -6    2    1    2    0  502 -0.36684559173E+02  0.10575653027E+03 -0.26335985532E+03  0.33319343786E+03  0.17067294180E+03 0.  0.
      -24    2    5    5    0    0 -0.88314351332E+02  0.67994343726E+02 -0.19949523118E+03  0.24268156911E+03  0.81690521422E+02 0.  0.
        5    1    3    3  501    0  0.26241248737E+02 -0.92792926948E+02 -0.43686011445E+02  0.10597022233E+03  0.46999998093E+01 0. -1.
       -5    1    5    5    0  502  0.51629792160E+02  0.37762186543E+02 -0.63864624137E+02  0.90511868754E+02  0.46999998093E+01 0.  1.
       13    1    6    6    0    0 -0.65600722326E+02  0.86090471970E+02 -0.14513437562E+03  0.18104974764E+03  0.00000000000E+00 0. -1.
      -13    1    4    4    0    0  0.75720898856E+01  0.65845397030E+01  0.11828559889E+01  0.10104051496E+02  0.00000000000E+00 0.  1.
       14    1    4    4    0    0  0.28712205495E+01 -0.19548143024E+02 -0.20608150097E+03  0.20702646895E+03  0.00000000000E+00 0. -1.
      -14    1    6    6    0    0 -0.22713629006E+02 -0.18096128244E+02 -0.54360855559E+02  0.61631821466E+02  0.00000000000E+00 0.  1.
</event>
<event>
12   0  0.9284400E-04  0.1761654E+03  0.7546771E-02  0.1172278E+00
       21   -1    0    0  503  502  0.00000000000E+00  0.00000000000E+00  0.96041875327E+02  0.96041875327E+02  0.00000000000E+00 0. -1.
       21   -1    0    0  501  503  0.00000000000E+00  0.00000000000E+00 -0.31795771199E+03  0.31795771199E+03  0.00000000000E+00 0. -1.
        6    2    1    2  501    0 -0.16311390561E+00  0.11440765038E+02 -0.11224473627E+03  0.20888545914E+03  0.17579344842E+03 0.  0.
       24    2    3    3    0    0 -0.19183831256E+02  0.39997012994E+02 -0.13847162927E+03  0.16544369467E+03  0.78926824102E+02 0.  0.
       -6    2    1    2    0  502  0.16311390561E+00 -0.11440765038E+02 -0.10967110039E+03  0.20511412818E+03  0.17295414886E+03 0.  0.
      -24    2    5    5    0    0  0.49484232655E+02  0.29797619914E+02 -0.35049094285E+02  0.10650524956E+03  0.82330685292E+02 0.  0.
        5    1    3    3  501    0  0.19020717351E+02 -0.28556247956E+02  0.26226892996E+02  0.43441764470E+02  0.46999998093E+01 0. -1.
       -5    1    5    5    0  502 -0.49321118749E+02 -0.41238384952E+02 -0.74622006106E+02  0.98608878615E+02  0.46999998093E+01 0.  1.
       13    1    6    6    0    0 -0.18963619834E+02  0.24705567652E+02 -0.48560520287E+01  0.31520869143E+02  0.00000000000E+00 0. -1.
      -13    1    4    4    0    0  0.23235422522E+02 -0.54194149253E+01 -0.17999246307E+02  0.29886916628E+02  0.00000000000E+00 0.  1.
       14    1    4    4    0    0 -0.42419253778E+02  0.45416427919E+02 -0.12047238296E+03  0.13555677804E+03  0.00000000000E+00 0. -1.
      -14    1    6    6    0    0  0.68447852489E+02  0.50920522624E+01 -0.30193042256E+02  0.74984380422E+02  0.00000000000E+00 0.  1.
</event>
<event>
11   0  0.9284400E-04  0.2383090E+03  0.7546771E-02  0.1124801E+00
       21   -1    0    0  501  502  0.00000000000E+00  0.00000000000E+00  0.34656579270E+03  0.34656579270E+03  0.00000000000E+00 0. -1.
       21   -1    0    0  502  503  0.00000000000E+00  0.00000000000E+00 -0.16168680403E+03  0.16168680403E+03  0.00000000000E+00 0.  1.
      -24    2    1    2    0    0 -0.40918719519E+02  0.55217115759E+01  0.63727630346E+02  0.11032418951E+03  0.80033649269E+02 0.  0.
        6    2    1    2  501    0  0.51022401937E+02  0.11769364730E+03  0.15901906358E+03  0.26854462864E+03  0.17428159649E+03 0.  0.
       24    2    4    4    0    0  0.10089076422E+03  0.80111910295E+02  0.12555059877E+03  0.19754132838E+03  0.81625725656E+02 0.  0.
        5    1    4    4  501    0 -0.49868362284E+02  0.37581737000E+02  0.33468464803E+02  0.71003300257E+02  0.46999998093E+01 0. -1.
       -5    1    1    2    0  503 -0.10103682419E+02 -0.12321535887E+03 -0.37867705251E+02  0.12938377858E+03  0.46999998093E+01 0.  1.
       13    1    3    3    0    0 -0.10167512379E+02 -0.33967813280E+02  0.44043003433E+02  0.56541814601E+02  0.00000000000E+00 0. -1.
      -13    1    5    5    0    0  0.49036663086E+02  0.35322846114E+02  0.11262267028E+03  0.12781300264E+03  0.00000000000E+00 0.  1.
       14    1    5    5    0    0  0.51854101135E+02  0.44789064182E+02  0.12927928497E+02  0.69728325737E+02  0.00000000000E+00 0. -1.
      -14    1    3    3    0    0 -0.30751207140E+02  0.39489524856E+02  0.19684626914E+02  0.53782374907E+02  0.00000000000E+00 0.  1.
</event>
<event>
12   0  0.9284400E-04  0.1879051E+03  0.7546771E-02  0.1160871E+00
       21   -1    0    0  503  502  0.00000000000E+00  0.00000000000E+00  0.40268350041E+03  0.40268350041E+03  0.00000000000E+00 0. -1.
       21   -1    0    0  501  503  0.00000000000E+00  0.00000000000E+00 -0.89307756449E+02  0.89307756449E+02  0.00000000000E+00 0. -1.
        6    2    1    2  501    0 -0.55575231064E+02  0.48892638598E+02  0.19816356818E+03  0.27157759456E+03  0.17031292875E+03 0.  0.
       24    2    3    3    0    0  0.20988110880E+02  0.45908923553E+02  0.15975769186E+03  0.18574083543E+03  0.80181093638E+02 0.  0.
       -6    2    1    2    0  502  0.55575231064E+02 -0.48892638598E+02  0.11521217578E+03  0.22041366229E+03  0.17271143755E+03 0.  0.
      -24    2    5    5    0    0  0.29759081736E+02  0.27109668825E+02  0.17089898321E+02  0.93555885108E+02  0.82704908706E+02 0.  0.
        5    1    3    3  501    0 -0.76563341944E+02  0.29837150456E+01  0.38405876313E+02  0.85836759134E+02  0.46999998093E+01 0. -1.
       -5    1    5    5    0  502  0.25816149328E+02 -0.76002307423E+02  0.98122277461E+02  0.12685777718E+03  0.46999998093E+01 0.  1.
       13    1    6    6    0    0  0.54515266396E+02  0.35261350071E+02  0.18328709187E+02  0.67462720517E+02  0.00000000000E+00 0. -1.
      -13    1    4    4    0    0  0.24282409225E+02  0.40822808675E+02  0.30733891938E+02  0.56574810822E+02  0.00000000000E+00 0.  1.
       14    1    4    4    0    0 -0.32942983450E+01  0.50861148777E+01  0.12902379993E+03  0.12916602461E+03  0.00000000000E+00 0. -1.
      -14    1    6    6    0    0 -0.24756184659E+02 -0.81516812462E+01 -0.12388108657E+01  0.26093164591E+02  0.00000000000E+00 0.  1.
</event>
<event>
12   0  0.9284400E-04  0.1808644E+03  0.7546771E-02  0.1167173E+00
       21   -1    0    0  503  502  0.00000000000E+00  0.00000000000E+00  0.14157492859E+03  0.14157492859E+03  0.00000000000E+00 0.  1.
       21   -1    0    0  501  503  0.00000000000E+00  0.00000000000E+00 -0.26050254337E+03  0.26050254337E+03  0.00000000000E+00 0.  1.
        6    2    1    2  501    0  0.32093251957E+02 -0.44208595604E+02 -0.12840538473E+03  0.22181046931E+03  0.17241683422E+03 0.  0.
       24    2    3    3    0    0  0.56212483215E+02  0.24337089480E+02 -0.49909261695E+02  0.11474049411E+03  0.83200417018E+02 0.  0.
       -6    2    1    2    0  502 -0.32093251957E+02  0.44208595604E+02  0.94777699578E+01  0.18026700264E+03  0.17152838649E+03 0.  0.
      -24    2    5    5    0    0 -0.59195011244E+02  0.55444597001E+02  0.54205881994E+02  0.12656926444E+03  0.80643340489E+02 0.  0.
        5    1    3    3  501    0 -0.24119231258E+02 -0.68545685084E+02 -0.78496123038E+02  0.10706997520E+03  0.46999998093E+01 0. -1.
       -5    1    5    5    0  502  0.27101759286E+02 -0.11236001397E+02 -0.44728112036E+02  0.53697738205E+02  0.46999998093E+01 0.  1.
       13    1    6    6    0    0  0.94992985889E+01  0.12868792051E+02 -0.13660960176E+02  0.21034835760E+02  0.00000000000E+00 0. -1.
      -13    1    4    4    0    0  0.68370730364E+02  0.26227380908E+02 -0.11146959501E+02  0.74072174168E+02  0.00000000000E+00 0.  1.
       14    1    4    4    0    0 -0.12158247149E+02 -0.18902914286E+01 -0.38762302194E+02  0.40668319941E+02  0.00000000000E+00 0. -1.
      -14    1    6    6    0    0 -0.68694309832E+02  0.42575804950E+02  0.67866842170E+02  0.10553442868E+03  0.00000000000E+00 0.  1.
</event>
<event>
12   0  0.9284400E-04  0.1762084E+03  0.7546771E-02  0.1171798E+00
       21   -1    0    0  501  502  0.00000000000E+00  0.00000000000E+00  0.84549444628E+02  0.84549444628E+02  0.00000000000E+00 0. -1.
       21   -1    0    0  502  503  0.00000000000E+00  0.00000000000E+00 -0.37588381629E+03  0.37588381629E+03  0.00000000000E+00 0. -1.
        6    2    1    2  501    0 -0.25744319933E+02 -0.22692593688E+02 -0.18449601305E+03  0.25436571409E+03  0.17171317322E+03 0.  0.
       24    2    3    3    0    0 -0.59991897975E+02  0.36460641597E+02 -0.12712369965E+03  0.16500311460E+03  0.78340197884E+02 0.  0.
       -6    2    1    2    0  503  0.25744319933E+02  0.22692593688E+02 -0.10683835861E+03  0.20606754682E+03  0.17283424188E+03 0.  0.
      -24    2    5    5    0    0  0.80288418886E+02  0.28977140834E+02 -0.51965996490E+02  0.12830109913E+03  0.80466156546E+02 0.  0.
        5    1    3    3  501    0  0.34247578042E+02 -0.59153235284E+02 -0.57372313393E+02  0.89362599495E+02  0.46999998093E+01 0. -1.
       -5    1    5    5    0  503 -0.54544098952E+02 -0.62845471459E+01 -0.54872362122E+02  0.77766447690E+02  0.46999998093E+01 0.  1.
       13    1    6    6    0    0  0.59307836888E+02  0.27129489179E+02  0.70892144341E+01  0.65602482123E+02  0.00000000000E+00 0. -1.
      -13    1    4    4    0    0 -0.30938504327E+02  0.29321347121E+02 -0.95493449416E+01  0.43682060801E+02  0.00000000000E+00 0.  1.
       14    1    4    4    0    0 -0.29053393648E+02  0.71392944760E+01 -0.11757435471E+03  0.12132105380E+03  0.00000000000E+00 0. -1.
      -14    1    6    6    0    0  0.20980581998E+02  0.18476516544E+01 -0.59055210924E+02  0.62698617009E+02  0.00000000000E+00 0.  1.
</event>
<event>
12   0  0.9284400E-04  0.2044847E+03  0.7546771E-02  0.1146222E+00
       21   -1    0    0  501  502  0.00000000000E+00  0.00000000000E+00  0.18679160890E+03  0.18679160890E+03  0.00000000000E+00 0. -1.
       21   -1    0    0  502  503  0.00000000000E+00  0.00000000000E+00 -0.25037477475E+03  0.25037477475E+03  0.00000000000E+00 0. -1.
       -6    2    1    2    0  503  0.10386690031E+03 -0.22187813137E+02 -0.10436005741E+03  0.22865560909E+03  0.17352732912E+03 0.  0.
      -24    2    3    3    0    0  0.72913427653E+02 -0.82153869864E+02 -0.86639841329E+02  0.15872606251E+03  0.74979160757E+02 0.  0.
        6    2    1    2  501    0 -0.10386690031E+03  0.22187813137E+02  0.40776891563E+02  0.20851077456E+03  0.17473796437E+03 0.  0.
       24    2    5    5    0    0 -0.32306338772E+02 -0.37910516186E+02  0.43427888622E+01  0.10810033191E+03  0.95843180154E+02 0.  0.
        5    1    5    5  501    0 -0.71560561543E+02  0.60098329323E+02  0.36434102701E+02  0.10041044265E+03  0.46999998093E+01 0. -1.
       -5    1    3    3    0  503  0.30953472661E+02  0.59966056727E+02 -0.17720216080E+02  0.69929546583E+02  0.46999998093E+01 0.  1.
       13    1    4    4    0    0  0.75615015916E+02 -0.44166341726E+02 -0.34411498462E+02  0.94087446558E+02  0.00000000000E+00 0. -1.
      -13    1    6    6    0    0 -0.23704921700E+02 -0.61194616447E+01 -0.43559921225E+02  0.49968368602E+02  0.00000000000E+00 0.  1.
       14    1    6    6    0    0 -0.86014170718E+01 -0.31791054541E+02  0.47902710087E+02  0.58131963309E+02  0.00000000000E+00 0. -1.
      -14    1    4    4    0    0 -0.27015882627E+01 -0.37987528137E+02 -0.52228342867E+02  0.64638615949E+02  0.00000000000E+00 0.  1.
</event>
<event>
12   0  0.9284400E-04  0.1906542E+03  0.7546771E-02  0.1158324E+00
       21   -1    0    0  503  502  0.00000000000E+00  0.00000000000E+00  0.14014512822E+03  0.14014512822E+03  0.00000000000E+00 0.  1.
       21   -1    0    0  501  503  0.00000000000E+00  0.00000000000E+00 -0.38632337262E+03  0.38632337262E+03  0.00000000000E+00 0.  1.
        6    2    1    2  501    0  0.45654058381E+02 -0.63276490544E+02 -0.27516259451E+03  0.33362372543E+03  0.17176183933E+03 0.  0.
       24    2    3    3    0    0  0.95408304481E+02 -0.42564742732E+02 -0.15985982827E+03  0.20626093886E+03  0.77935282874E+02 0.  0.
       -6    2    1    2    0  502 -0.45654058381E+02  0.63276490544E+02  0.28984350110E+02  0.19284477541E+03  0.17395633806E+03 0.  0.
      -24    2    5    5    0    0  0.19025172161E+02  0.62436684659E+02 -0.26633137944E+02  0.10740764582E+03  0.81035680885E+02 0.  0.
        5    1    3    3  501    0 -0.49754246100E+02 -0.20711747812E+02 -0.11530276624E+03  0.12736278657E+03  0.46999998093E+01 0. -1.
       -5    1    5    5    0  502 -0.64679230542E+02  0.83980588569E+00  0.55617488054E+02  0.85437129593E+02  0.46999998093E+01 0.  1.
       13    1    6    6    0    0  0.34993214227E+02 -0.40554459444E+01 -0.43981291928E+01  0.35500918638E+02  0.00000000000E+00 0. -1.
      -13    1    4    4    0    0  0.59108206522E+02 -0.36951242031E+02 -0.38857923805E+02  0.79806720321E+02  0.00000000000E+00 0.  1.
       14    1    4    4    0    0  0.36300097960E+02 -0.56135007006E+01 -0.12100190447E+03  0.12645421854E+03  0.00000000000E+00 0. -1.
      -14    1    6    6    0    0 -0.15968042066E+02  0.66492130603E+02 -0.22235008751E+02  0.71906727180E+02  0.00000000000E+00 0.  1.
</event>
<event>
12   0  0.9284400E-04  0.1769289E+03  0.7546771E-02  0.1170809E+00
        1   -1    0    0  502    0  0.00000000000E+00  0.00000000000E+00  0.26900856277E+04  0.26900856277E+04  0.00000000000E+00 0. -1.
       -1   -1    0    0    0  501  0.00000000000E+00  0.00000000000E+00 -0.12362315511E+02  0.12362315511E+02  0.00000000000E+00 0.  1.
        6    2    1    2  502    0 -0.46679388191E+02  0.47900379085E+01  0.16752156609E+04  0.16846688171E+04  0.17192906435E+03 0.  0.
       24    2    3    3    0    0 -0.24984576766E+02  0.67618332741E+02  0.87543542656E+03  0.88211752736E+03  0.80917723722E+02 0.  0.
       -6    2    1    2    0  501  0.46679388191E+02 -0.47900379085E+01  0.10025076512E+04  0.10177791260E+04  0.16926561621E+03 0.  0.
      -24    2    5    5    0    0  0.22680199402E+01  0.52950158307E+01  0.21956431806E+03  0.23349828927E+03  0.79245064311E+02 0.  0.
        5    1    3    3  502    0 -0.21694811425E+02 -0.62828294832E+02  0.79978023435E+03  0.80255128979E+03  0.46999998093E+01 0. -1.
       -5    1    5    5    0  501  0.44411368251E+02 -0.10085053739E+02  0.78294333318E+03  0.78428083676E+03  0.46999998093E+01 0.  1.
       13    1    6    6    0    0 -0.28319830891E+02  0.28732572863E+02  0.12629246534E+03  0.13257963783E+03  0.00000000000E+00 0. -1.
      -13    1    4    4    0    0  0.15506214365E+02 -0.67488978469E+01  0.61281440054E+02  0.63572047326E+02  0.00000000000E+00 0.  1.
       14    1    4    4    0    0 -0.40490791131E+02  0.74367230588E+02  0.81415398650E+03  0.81854548004E+03  0.00000000000E+00 0. -1.
      -14    1    6    6    0    0  0.30587850831E+02 -0.23437557032E+02  0.93271852718E+02  0.10091865143E+03  0.00000000000E+00 0.  1.
</event>
<event>
12   0  0.9284400E-04  0.2115292E+03  0.7546771E-02  0.1140433E+00
       21   -1    0    0  501  502  0.00000000000E+00  0.00000000000E+00  0.44069845221E+03  0.44069845221E+03  0.00000000000E+00 0.  1.
       21   -1    0    0  502  503  0.00000000000E+00  0.00000000000E+00 -0.10745887220E+03  0.10745887220E+03  0.00000000000E+00 0. -1.
       -6    2    1    2    0  503 -0.10559051246E+03 -0.60761774371E+02  0.10142863335E+03  0.23458977900E+03  0.17292555393E+03 0.  0.
      -24    2    3    3    0    0 -0.98465744286E+02  0.18713163978E+02  0.81100527385E+02  0.15211341852E+03  0.80718716844E+02 0.  0.
        6    2    1    2  501    0  0.10559051246E+03  0.60761774371E+02  0.23181094666E+03  0.31356754540E+03  0.17247301526E+03 0.  0.
       24    2    5    5    0    0  0.43889920793E+02  0.27742374153E+01  0.22562052868E+02  0.87787327038E+02  0.72550306811E+02 0.  0.
        5    1    5    5  501    0  0.61700591667E+02  0.57987536955E+02  0.20924889379E+03  0.22578021836E+03  0.46999998093E+01 0. -1.
       -5    1    3    3    0  503 -0.71247681741E+01 -0.79474938349E+02  0.20328105967E+02  0.82476360477E+02  0.46999998093E+01 0.  1.
       13    1    4    4    0    0 -0.59383256186E+02 -0.59345271348E+01  0.10540328914E+01  0.59688363295E+02  0.00000000000E+00 0. -1.
      -13    1    6    6    0    0  0.44091751213E+02 -0.26351847767E+02  0.27469349104E+02  0.58250043312E+02  0.00000000000E+00 0.  1.
       14    1    6    6    0    0 -0.20183041978E+00  0.29126085182E+02 -0.49072962356E+01  0.29537283726E+02  0.00000000000E+00 0. -1.
      -14    1    4    4    0    0 -0.39082488100E+02  0.24647691113E+02  0.80046494493E+02  0.92425055228E+02  0.00000000000E+00 0.  1.
</event>
<event>
12   0  0.9284400E-04  0.2045228E+03  0.7546771E-02  0.1146488E+00
       21   -1    0    0  501  502  0.00000000000E+00  0.00000000000E+00  0.87894594973E+02  0.87894594973E+02  0.00000000000E+00 0. -1.
       21   -1    0    0  502  503  0.00000000000E+00  0.00000000000E+00 -0.76439761001E+03  0.76439761001E+03  0.00000000000E+00 0.  1.
       -6    2    1    2    0  503 -0.10917077239E+03 -0.92296528736E+01 -0.60136957463E+03  0.63440553747E+03  0.16976918639E+03 0.  0.
      -24    2    3    3    0    0 -0.74492297607E+02 -0.13224205807E+02 -0.17653014352E+03  0.20810847522E+03  0.80139028334E+02 0.  0.
        6    2    1    2  501    0  0.10917077239E+03  0.92296528736E+01 -0.75133440415E+02  0.21788666752E+03  0.17270240872E+03 0.  0.
       24    2    5    5    0    0  0.59593976741E+02 -0.36856988046E+02  0.11486656473E+02  0.10785499789E+03  0.81184220525E+02 0.  0.
        5    1    5    5  501    0  0.49576795645E+02  0.46086640920E+02 -0.86620096887E+02  0.11003166963E+03  0.46999998093E+01 0. -1.
       -5    1    3    3    0  503 -0.34678474778E+02  0.39945529335E+01 -0.42483943110E+03  0.42629706225E+03  0.46999998093E+01 0.  1.
       13    1    4    4    0    0 -0.26459837320E+02 -0.37720563690E+02 -0.38924915231E+02  0.60316771646E+02  0.00000000000E+00 0. -1.
      -13    1    6    6    0    0  0.44521443388E+02  0.22042776931E+01 -0.26044886045E+02  0.51627065097E+02  0.00000000000E+00 0.  1.
       14    1    6    6    0    0  0.15072533353E+02 -0.39061265739E+02  0.37531542518E+02  0.56227932797E+02  0.00000000000E+00 0. -1.
      -14    1    4    4    0    0 -0.48032460288E+02  0.24496357883E+02 -0.13760522829E+03  0.14779170357E+03  0.00000000000E+00 0.  1.
</event>
<event>
12   0  0.9284400E-04  0.2369028E+03  0.7546771E-02  0.1122001E+00
       21   -1    0    0  503  502  0.00000000000E+00  0.00000000000E+00  0.85925312045E+03  0.85925312045E+03  0.00000000000E+00 0. -1.
       21   -1    0    0  501  503  0.00000000000E+00  0.00000000000E+00 -0.67047765958E+02  0.67047765958E+02  0.00000000000E+00 0.  1.
        6    2    1    2  501    0  0.15082092052E+03 -0.55489506774E+02  0.31796225698E+03  0.39651347426E+03  0.17406005566E+03 0.  0.
       24    2    3    3    0    0  0.97179171607E+02 -0.10072329112E+02  0.29700193227E+03  0.32301801546E+03  0.81149536878E+02 0.  0.
       -6    2    1    2    0  502 -0.15082092052E+03  0.55489506774E+02  0.47424309751E+03  0.52978741215E+03  0.17303800480E+03 0.  0.
      -24    2    5    5    0    0 -0.12963680796E+03  0.48346802253E+02  0.48011224139E+03  0.50620093932E+03  0.81169645612E+02 0.  0.
        5    1    3    3  501    0  0.53641748914E+02 -0.45417177662E+02  0.20960324713E+02  0.73495458796E+02  0.46999998093E+01 0. -1.
       -5    1    5    5    0  502 -0.21184112558E+02  0.71427045209E+01 -0.58691438737E+01  0.23586472834E+02  0.46999998093E+01 0.  1.
       13    1    6    6    0    0 -0.63329752579E+02  0.66318378588E+02  0.27753854969E+03  0.29229511023E+03  0.00000000000E+00 0. -1.
      -13    1    4    4    0    0  0.37737808476E+02  0.35516697976E+02  0.13196028636E+03  0.14177127776E+03  0.00000000000E+00 0.  1.
       14    1    4    4    0    0  0.59441363131E+02 -0.45589027088E+02  0.16504164591E+03  0.18124673770E+03  0.00000000000E+00 0. -1.
      -14    1    6    6    0    0 -0.66307055384E+02 -0.17971576335E+02  0.20257369170E+03  0.21390582909E+03  0.00000000000E+00 0.  1.
</event>
<event>
12   0  0.9284400E-04  0.3279149E+03  0.7546771E-02  0.1072304E+00
       21   -1    0    0  503  502  0.00000000000E+00  0.00000000000E+00  0.16309242650E+03  0.16309242650E+03  0.00000000000E+00 0.  1.
       21   -1    0    0  501  503  0.00000000000E+00  0.00000000000E+00 -0.10868129907E+04  0.10868129907E+04  0.00000000000E+00 0. -1.
        6    2    1    2  501    0  0.24440120103E+02 -0.27737990865E+03 -0.85487843571E+03  0.91484210825E+03  0.16906214832E+03 0.  0.
       24    2    3    3    0    0 -0.52200979847E+01 -0.23474837351E+03 -0.80450857065E+03  0.84234114529E+03  0.84678902415E+02 0.  0.
       -6    2    1    2    0  502 -0.24440120103E+02  0.27737990865E+03 -0.68842128458E+02  0.33506330891E+03  0.17317981733E+03 0.  0.
      -24    2    5    5    0    0  0.46893141668E+02  0.16386812027E+03 -0.69641571384E+02  0.20091380483E+03  0.80403239558E+02 0.  0.
        5    1    3    3  501    0  0.29660218087E+02 -0.42631535147E+02 -0.50369865060E+02  0.72500962962E+02  0.46999998093E+01 0. -1.
       -5    1    5    5    0  502 -0.71333261770E+02  0.11351178839E+03  0.79944292561E+00  0.13414950408E+03  0.46999998093E+01 0.  1.
       13    1    6    6    0    0  0.15217134506E+02  0.85439061384E+02  0.66076414870E+01  0.87034793725E+02  0.00000000000E+00 0. -1.
      -13    1    4    4    0    0 -0.17975094016E+02 -0.12675210048E+02 -0.35084099368E+02  0.41408440964E+02  0.00000000000E+00 0.  1.
       14    1    4    4    0    0  0.12754996031E+02 -0.22207316346E+03 -0.76942447128E+03  0.80093270433E+03  0.00000000000E+00 0. -1.
      -14    1    6    6    0    0  0.31676007161E+02  0.78429058884E+02 -0.76249212871E+02  0.11387901111E+03  0.00000000000E+00 0.  1.
</event>
<event>
12   0  0.9284400E-04  0.2305094E+03  0.7546771E-02  0.1126815E+00
       21   -1    0    0  501  502  0.00000000000E+00  0.00000000000E+00  0.20861278253E+03  0.20861278253E+03  0.00000000000E+00 0. -1.
       21   -1    0    0  502  503  0.00000000000E+00  0.00000000000E+00 -0.46959492389E+03  0.46959492389E+03  0.00000000000E+00 0. -1.
       -6    2    1    2    0  503 -0.54870047526E+02 -0.14045872531E+03  0.10020683023E+03  0.25134835378E+03  0.17434222234E+03 0.  0.
      -24    2    3    3    0    0 -0.37420765431E+02 -0.12424498326E+03  0.13879277953E+03  0.20575966704E+03  0.78971357982E+02 0.  0.
        6    2    1    2  501    0  0.54870047526E+02  0.14045872531E+03 -0.36118897160E+03  0.42685935265E+03  0.17032926381E+03 0.  0.
       24    2    5    5    0    0 -0.21318537456E+02  0.52928156361E+02 -0.10119109552E+03  0.14210105770E+03  0.81836440602E+02 0.  0.
        5    1    5    5  501    0  0.76188584983E+02  0.87530568948E+02 -0.25999787607E+03  0.28475829495E+03  0.46999998093E+01 0. -1.
       -5    1    3    3    0  503 -0.17449282096E+02 -0.16213742052E+02 -0.38585949298E+02  0.45588686737E+02  0.46999998093E+01 0.  1.
       13    1    4    4    0    0 -0.13431640952E+02 -0.30650868335E+02  0.92999987965E+02  0.98837657144E+02  0.00000000000E+00 0. -1.
      -13    1    6    6    0    0 -0.45743777985E+02  0.50843458438E+02 -0.48068364419E+02  0.83594964850E+02  0.00000000000E+00 0.  1.
       14    1    6    6    0    0  0.24425240529E+02  0.20846979228E+01 -0.53122731103E+02  0.58506092847E+02  0.00000000000E+00 0. -1.
      -14    1    4    4    0    0 -0.23989124479E+02 -0.93594114921E+02  0.45792791568E+02  0.10692200990E+03  0.00000000000E+00 0.  1.
</event>
<event>
12   0  0.9284400E-04  0.1863146E+03  0.7546771E-02  0.1163484E+00
       21   -1    0    0  501  502  0.00000000000E+00  0.00000000000E+00  0.15963263349E+03  0.15963263349E+03  0.00000000000E+00 0. -1.
       21   -1    0    0  502  503  0.00000000000E+00  0.00000000000E+00 -0.22027149564E+03  0.22027149564E+03  0.00000000000E+00 0. -1.
       -6    2    1    2    0  503  0.42328084322E+02  0.50494668285E+02 -0.73163898764E+02  0.20016515839E+03  0.17427494457E+03 0.  0.
      -24    2    3    3    0    0  0.71522391167E+02 -0.11573243166E+02 -0.74850432864E+02  0.13139257970E+03  0.80075154111E+02 0.  0.
        6    2    1    2  501    0 -0.42328084322E+02 -0.50494668285E+02  0.12525036617E+02  0.17973897073E+03  0.16675683737E+03 0.  0.
       24    2    5    5    0    0  0.18744910796E+02  0.15585093878E+02 -0.15043676007E+02  0.85512808685E+02  0.80572088402E+02 0.  0.
        5    1    5    5  501    0 -0.61072995118E+02 -0.66079762163E+02  0.27568712624E+02  0.94226162047E+02  0.46999998093E+01 0. -1.
       -5    1    3    3    0  503 -0.29194306845E+02  0.62067911450E+02  0.16865340997E+01  0.68772578688E+02  0.46999998093E+01 0.  1.
       13    1    4    4    0    0  0.49585275447E+02  0.21772854935E+02 -0.73704830818E+02  0.91461242278E+02  0.00000000000E+00 0. -1.
      -13    1    6    6    0    0  0.24823333030E+02 -0.12940423280E+02 -0.38835802059E+02  0.47873499339E+02  0.00000000000E+00 0.  1.
       14    1    6    6    0    0 -0.60784222346E+01  0.28525517158E+02  0.23792126051E+02  0.37639309346E+02  0.00000000000E+00 0. -1.
      -14    1    4    4    0    0  0.21937115720E+02 -0.33346098100E+02 -0.11456020459E+01  0.39931337426E+02  0.00000000000E+00 0.  1.
</event>
<event>
12   0  0.9284400E-04  0.2219874E+03  0.7546771E-02  0.1132537E+00
       21   -1    0    0  503  502  0.00000000000E+00  0.00000000000E+00  0.13304135576E+03  0.13304135576E+03  0.00000000000E+00 0. -1.
       21   -1    0    0  501  503  0.00000000000E+00  0.00000000000E+00 -0.52984974719E+03  0.52984974719E+03  0.00000000000E+00 0. -1.
        6    2    1    2  501    0  0.10173125915E+03 -0.94583196772E+02 -0.38066504217E+03  0.44031744527E+03  0.17227404935E+03 0.  0.
       24    2    3    3    0    0  0.39974159045E+02  0.19248450674E+02 -0.14231351256E+03  0.16901480054E+03  0.79651934681E+02 0.  0.
       -6    2    1    2    0  502 -0.10173125915E+03  0.94583196772E+02 -0.16143349259E+02  0.22257365767E+03  0.17315656258E+03 0.  0.
      -24    2    5    5    0    0 -0.97010284036E+02  0.10362403038E+01  0.49376071649E+01  0.12644968880E+03  0.80951064412E+02 0.  0.
        5    1    3    3  501    0  0.61757100104E+02 -0.11383164745E+03 -0.23835152961E+03  0.27130264473E+03  0.46999998093E+01 0. -1.
       -5    1    5    5    0  502 -0.47209751131E+01  0.93546956468E+02 -0.21080956424E+02  0.96123968876E+02  0.46999998093E+01 0.  1.
       13    1    6    6    0    0 -0.13991440213E+02  0.27042690772E+02  0.22295520930E+02  0.37738015011E+02  0.00000000000E+00 0. -1.
      -13    1    4    4    0    0 -0.15823558178E+02  0.14285711765E+02 -0.89576871893E+02  0.92078675773E+02  0.00000000000E+00 0.  1.
       14    1    4    4    0    0  0.55797717223E+02  0.49627389092E+01 -0.52736640671E+02  0.76936124766E+02  0.00000000000E+00 0. -1.
      -14    1    6    6    0    0 -0.83018843823E+02 -0.26006450468E+02 -0.17357913765E+02  0.88711673786E+02  0.00000000000E+00 0.  1.
</event>
<event>
12   0  0.9284400E-04  0.2202961E+03  0.7546771E-02  0.1134069E+00
       21   -1    0    0  503  502  0.00000000000E+00  0.00000000000E+00  0.63017661801E+03  0.63017661801E+03  0.00000000000E+00 0.  1.
       21   -1    0    0  501  503  0.00000000000E+00  0.00000000000E+00 -0.11894361077E+03  0.11894361077E+03  0.00000000000E+00 0.  1.
        6    2    1    2  501    0  0.11285724370E+03 -0.70375511056E+02  0.32034560892E+02  0.22261309236E+03  0.17561579026E+03 0.  0.
       24    2    3    3    0    0  0.22667632915E+02 -0.70943685429E+02  0.62523567413E+02  0.12729175041E+03  0.82141129500E+02 0.  0.
       -6    2    1    2    0  502 -0.11285724370E+03  0.70375511056E+02  0.47919844635E+03  0.52650713642E+03  0.17288477000E+03 0.  0.
      -24    2    5    5    0    0 -0.33579962830E+02 -0.39836031495E+00  0.34565567301E+03  0.35577462504E+03  0.77265561178E+02 0.  0.
        5    1    3    3  501    0  0.90189610785E+02  0.56817437325E+00 -0.30489006521E+02  0.95321341957E+02  0.46999998093E+01 0. -1.
       -5    1    5    5    0  502 -0.79277280870E+02  0.70773871371E+02  0.13354277335E+03  0.17073251138E+03  0.46999998093E+01 0.  1.
       13    1    6    6    0    0 -0.21289604147E+02  0.23863988327E+02  0.53310841864E+02  0.62167379258E+02  0.00000000000E+00 0. -1.
      -13    1    4    4    0    0  0.48646463305E+02 -0.30228757406E+02  0.14279315695E+02  0.59026731429E+02  0.00000000000E+00 0.  1.
       14    1    4    4    0    0 -0.25978830390E+02 -0.40714928023E+02  0.48244251718E+02  0.68265018979E+02  0.00000000000E+00 0. -1.
      -14    1    6    6    0    0 -0.12290358683E+02 -0.24262348642E+02  0.29234483114E+03  0.29360724578E+03  0.00000000000E+00 0.  1.
</event>
<event>
12   0  0.9284400E-04  0.1857622E+03  0.7546771E-02  0.1163277E+00
       21   -1    0    0  501  502  0.00000000000E+00  0.00000000000E+00  0.63585848655E+03  0.63585848655E+03  0.00000000000E+00 0.  1.
       21   -1    0    0  502  503  0.00000000000E+00  0.00000000000E+00 -0.53130015302E+02  0.53130015302E+02  0.00000000000E+00 0.  1.
       -6    2    1    2    0  503 -0.54094439233E+02  0.36753672025E+02  0.30104426934E+03  0.35374459134E+03  0.17386932747E+03 0.  0.
      -24    2    3    3    0    0  0.10825617739E+02  0.17495403664E+02  0.56672546029E+02  0.10012061012E+03  0.79931695515E+02 0.  0.
        6    2    1    2  501    0  0.54094439233E+02 -0.36753672025E+02  0.28168420190E+03  0.33524391051E+03  0.16960380058E+03 0.  0.
       24    2    5    5    0    0  0.68843900405E+02  0.33976562785E+02  0.16893278890E+03  0.20124658273E+03  0.77897435466E+02 0.  0.
        5    1    5    5  501    0 -0.14749461172E+02 -0.70730234810E+02  0.11275141300E+03  0.13399732778E+03  0.46999998093E+01 0. -1.
       -5    1    3    3    0  503 -0.64920056972E+02  0.19258268361E+02  0.24437172331E+03  0.25362398122E+03  0.46999998093E+01 0.  1.
       13    1    4    4    0    0  0.23833073532E+02  0.25040067813E+02  0.71240019164E+02  0.79184346436E+02  0.00000000000E+00 0. -1.
      -13    1    6    6    0    0  0.44732865278E+02 -0.12116855780E+01  0.25284004671E+02  0.51398232558E+02  0.00000000000E+00 0.  1.
       14    1    6    6    0    0  0.24111035126E+02  0.35188248363E+02  0.14364878423E+03  0.14984835017E+03  0.00000000000E+00 0. -1.
      -14    1    4    4    0    0 -0.13007455793E+02 -0.75446641497E+01 -0.14567473135E+02  0.20936263680E+02  0.00000000000E+00 0.  1.
</event>
<event>
12   0  0.9284400E-04  0.2264706E+03  0.7546771E-02  0.1129448E+00
       21   -1    0    0  501  502  0.00000000000E+00  0.00000000000E+00  0.60194600806E+03  0.60194600806E+03  0.00000000000E+00 0. -1.
       21   -1    0    0  502  503  0.00000000000E+00  0.00000000000E+00 -0.12472479854E+03  0.12472479854E+03  0.00000000000E+00 0. -1.
       -6    2    1    2    0  503  0.96831130735E+01 -0.14287313998E+03  0.31890296269E+02  0.22706241631E+03  0.17330277869E+03 0.  0.
      -24    2    3    3    0    0  0.54465534478E+02 -0.65875101441E+02 -0.28883962817E+02  0.11912834491E+03  0.77789818202E+02 0.  0.
        6    2    1    2  501    0 -0.96831130735E+01  0.14287313998E+03  0.44533091325E+03  0.49960839028E+03  0.17544920784E+03 0.  0.
       24    2    5    5    0    0 -0.72032766568E+02  0.11446804453E+03  0.29591284357E+03  0.33516332868E+03  0.80488466400E+02 0.  0.
        5    1    5    5  501    0  0.62349653494E+02  0.28405095446E+02  0.14941806968E+03  0.16444506160E+03  0.46999998093E+01 0. -1.
       -5    1    3    3    0  503 -0.44782421405E+02 -0.76998038537E+02  0.60774259086E+02  0.10793407141E+03  0.46999998093E+01 0.  1.
       13    1    4    4    0    0 -0.10629687195E+02 -0.44007205128E+02 -0.21323773475E+02  0.50043257970E+02  0.00000000000E+00 0. -1.
      -13    1    6    6    0    0 -0.13525715647E+02 -0.57219294493E+01  0.59014458921E+01  0.15827587435E+02  0.00000000000E+00 0.  1.
       14    1    6    6    0    0 -0.58507050920E+02  0.12018997398E+03  0.29001139768E+03  0.31933574124E+03  0.00000000000E+00 0. -1.
      -14    1    4    4    0    0  0.65095221674E+02 -0.21867896313E+02 -0.75601893412E+01  0.69085086935E+02  0.00000000000E+00 0.  1.
</event>
<event>
12   0  0.9284400E-04  0.1956338E+03  0.7546771E-02  0.1153476E+00
        4   -1    0    0  502    0  0.00000000000E+00  0.00000000000E+00  0.11867934443E+04  0.11867934443E+04  0.00000000000E+00 0.  1.
       -4   -1    0    0    0  501  0.00000000000E+00  0.00000000000E+00 -0.33141937192E+02  0.33141937192E+02  0.00000000000E+00 0. -1.
        6    2    1    2  502    0  0.44175169926E+01  0.85764536685E+02  0.47008699559E+03  0.50825914102E+03  0.17311990295E+03 0.  0.
       24    2    3    3    0    0  0.28647730269E+01  0.12150445884E+03  0.29570470294E+03  0.33018323856E+03  0.82511570345E+02 0.  0.
       -6    2    1    2    0  501 -0.44175169926E+01 -0.85764536685E+02  0.68356451152E+03  0.71167624047E+03  0.17845884578E+03 0.  0.
      -24    2    5    5    0    0  0.13833703804E+02  0.13041690363E+02  0.36518749468E+03  0.37778734816E+03  0.94867892921E+02 0.  0.
        5    1    3    3  502    0  0.15527439657E+01 -0.35739922156E+02  0.17438229265E+03  0.17807590246E+03  0.46999998093E+01 0. -1.
       -5    1    5    5    0  501 -0.18251220797E+02 -0.98806227048E+02  0.31837701684E+03  0.33388889232E+03  0.46999998093E+01 0.  1.
       13    1    6    6    0    0  0.53971899404E+02  0.11404853341E+02  0.17862996063E+03  0.18695373609E+03  0.00000000000E+00 0. -1.
      -13    1    4    4    0    0  0.38197864847E+02  0.95509082870E+02  0.21444600924E+03  0.23784060349E+03  0.00000000000E+00 0.  1.
       14    1    4    4    0    0 -0.35333091820E+02  0.25995375971E+02  0.81258693702E+02  0.92342635069E+02  0.00000000000E+00 0. -1.
      -14    1    6    6    0    0 -0.40138195600E+02  0.16368370220E+01  0.18655753405E+03  0.19083361206E+03  0.00000000000E+00 0.  1.
</event>
<event>
12   0  0.9284400E-04  0.2810735E+03  0.7546771E-02  0.1095104E+00
        1   -1    0    0  502    0  0.00000000000E+00  0.00000000000E+00  0.19660960160E+04  0.19660960160E+04  0.00000000000E+00 0.  1.
       -1   -1    0    0    0  501  0.00000000000E+00  0.00000000000E+00 -0.47998909083E+02  0.47998909083E+02  0.00000000000E+00 0. -1.
        6    2    1    2  502    0  0.11076573798E+03 -0.19025896415E+03  0.55889834843E+03  0.62657228508E+03  0.17820758236E+03 0.  0.
       24    2    3    3    0    0 -0.56261284228E+01 -0.98124225669E+02  0.18129367282E+03  0.22080972195E+03  0.78927311621E+02 0.  0.
       -6    2    1    2    0  501 -0.11076573798E+03  0.19025896415E+03  0.13591987585E+04  0.13875226400E+04  0.17126088077E+03 0.  0.
      -24    2    5    5    0    0 -0.99320428918E+02  0.20796892249E+03  0.10540714539E+04  0.10816314833E+04  0.75791922247E+02 0.  0.
        5    1    3    3  502    0  0.11639186640E+03 -0.92134738483E+02  0.37760467560E+03  0.40576256313E+03  0.46999998093E+01 0. -1.
       -5    1    5    5    0  501 -0.11445309064E+02 -0.17709958343E+02  0.30512730466E+03  0.30589115674E+03  0.46999998093E+01 0.  1.
       13    1    6    6    0    0 -0.84776016382E+02  0.93171237307E+02  0.50201143986E+03  0.51757447596E+03  0.00000000000E+00 0. -1.
      -13    1    4    4    0    0 -0.10762089389E+02 -0.32522586597E+02  0.13765172970E+03  0.14185041380E+03  0.00000000000E+00 0.  1.
       14    1    4    4    0    0  0.51359609666E+01 -0.65601639072E+02  0.43641943122E+02  0.78959308150E+02  0.00000000000E+00 0. -1.
      -14    1    6    6    0    0 -0.14544412535E+02  0.11479768519E+03  0.55206001401E+03  0.56405700734E+03  0.00000000000E+00 0.  1.
</event>
<event>
12   0  0.9284400E-04  0.1824328E+03  0.7546771E-02  0.1165528E+00
       21   -1    0    0  501  502  0.00000000000E+00  0.00000000000E+00  0.19837311666E+03  0.19837311666E+03  0.00000000000E+00 0. -1.
       21   -1    0    0  502  503  0.00000000000E+00  0.00000000000E+00 -0.21711040525E+03  0.21711040525E+03  0.00000000000E+00 0.  1.
       -6    2    1    2    0  503  0.61799251049E+01  0.57771012818E+02 -0.10862277201E+03  0.21210913983E+03  0.17267223055E+03 0.  0.
      -24    2    3    3    0    0 -0.21413060513E+02  0.83058296704E+02 -0.40682225117E+02  0.13439924669E+03  0.95136293061E+02 0.  0.
        6    2    1    2  501    0 -0.61799251049E+01 -0.57771012818E+02  0.89885483423E+02  0.20337438208E+03  0.17293368024E+03 0.  0.
       24    2    5    5    0    0  0.14623906067E+02 -0.63389331316E+02 -0.67108537881E+01  0.10429205644E+03  0.81238731678E+02 0.  0.
        5    1    5    5  501    0 -0.20803831172E+02  0.56183184987E+01  0.96596337211E+02  0.99082325644E+02  0.46999998093E+01 0. -1.
       -5    1    3    3    0  503  0.27592985618E+02 -0.25287283887E+02 -0.67940546893E+02  0.77709893141E+02  0.46999998093E+01 0.  1.
       13    1    4    4    0    0 -0.38608837668E+02  0.17142526131E+01 -0.33150684787E+02  0.50917078765E+02  0.00000000000E+00 0. -1.
      -13    1    6    6    0    0  0.39767815740E+02 -0.51045185609E+02  0.17756766085E+02  0.67099872462E+02  0.00000000000E+00 0.  1.
       14    1    6    6    0    0 -0.25143909673E+02 -0.12344145707E+02 -0.24467619873E+02  0.37192183979E+02  0.00000000000E+00 0. -1.
      -14    1    4    4    0    0  0.17195777155E+02  0.81344044091E+02 -0.75315403300E+01  0.83482167921E+02  0.00000000000E+00 0.  1.
</event>
<event>
12   0  0.9284400E-04  0.1927035E+03  0.7546771E-02  0.1156074E+00
       21   -1    0    0  501  502  0.00000000000E+00  0.00000000000E+00  0.12158076593E+03  0.12158076593E+03  0.00000000000E+00 0. -1.
       21   -1    0    0  502  503  0.00000000000E+00  0.00000000000E+00 -0.74448803493E+03  0.74448803493E+03  0.00000000000E+00 0. -1.
       -6    2    1    2    0  503  0.54919633406E+02  0.66409894631E+02 -0.64403643770E+03  0.67221040609E+03  0.17221340464E+03 0.  0.
      -24    2    3    3    0    0 -0.34680014060E+02  0.47225333510E+02 -0.28530206638E+03  0.30192864395E+03  0.79565705285E+02 0.  0.
        6    2    1    2  501    0 -0.54919633406E+02 -0.66409894631E+02  0.21129168700E+02  0.19385839476E+03  0.17236065448E+03 0.  0.
       24    2    5    5    0    0 -0.68313142124E+01 -0.97892055488E+02  0.44065948800E+02  0.13179553329E+03  0.76149414767E+02 0.  0.
        5    1    5    5  501    0 -0.48088319194E+02  0.31482160856E+02 -0.22936780100E+02  0.62062861477E+02  0.46999998093E+01 0. -1.
       -5    1    3    3    0  503  0.89599647466E+02  0.19184561121E+02 -0.35873437132E+03  0.37028176215E+03  0.46999998093E+01 0.  1.
       13    1    4    4    0    0  0.11511761321E+01 -0.21380107550E+02 -0.61211159370E+02  0.64847823686E+02  0.00000000000E+00 0. -1.
      -13    1    6    6    0    0  0.23131800468E+02 -0.88063007177E+02  0.23123588538E+02  0.93940799298E+02  0.00000000000E+00 0.  1.
       14    1    6    6    0    0 -0.29963114680E+02 -0.98290483107E+01  0.20942360263E+02  0.37854733989E+02  0.00000000000E+00 0. -1.
      -14    1    4    4    0    0 -0.35831190192E+02  0.68605441060E+02 -0.22409090701E+03  0.23708082026E+03  0.00000000000E+00 0.  1.
</event>
<event>
12   0  0.9284400E-04  0.2023015E+03  0.7546771E-02  0.1147952E+00
       21   -1    0    0  503  502  0.00000000000E+00  0.00000000000E+00  0.14221331001E+03  0.14221331001E+03  0.00000000000E+00 0.  1.
       21   -1    0    0  501  503  0.00000000000E+00  0.00000000000E+00 -0.42053269625E+03  0.42053269625E+03  0.00000000000E+00 0.  1.
        6    2    1    2  501    0  0.27741459662E+02  0.10262304248E+03 -0.29766141011E+03  0.35952192030E+03  0.17132605953E+03 0.  0.
       24    2    3    3    0    0  0.46936241185E+01  0.12895248224E+03 -0.17449764833E+03  0.23139758875E+03  0.80278527779E+02 0.  0.
       -6    2    1    2    0  502 -0.27741459662E+02 -0.10262304248E+03  0.19342023865E+02  0.20322408596E+03  0.17211867358E+03 0.  0.
      -24    2    5    5    0    0 -0.64450008119E+02 -0.87463043273E+02 -0.31396871852E+02  0.13861860134E+03  0.80160873195E+02 0.  0.
        5    1    3    3  501    0  0.23047835543E+02 -0.26329439763E+02 -0.12316376178E+03  0.12812433155E+03  0.46999998093E+01 0. -1.
       -5    1    5    5    0  502  0.36708548458E+02 -0.15159999203E+02  0.50738895717E+02  0.64605484616E+02  0.46999998093E+01 0.  1.
       13    1    6    6    0    0 -0.78171754604E+02 -0.77435230860E+02 -0.88549210915E+01  0.11038771591E+03  0.00000000000E+00 0. -1.
      -13    1    4    4    0    0 -0.17650852105E+02 -0.31987497622E+01 -0.19915863624E+02  0.26803473730E+02  0.00000000000E+00 0.  1.
       14    1    4    4    0    0  0.22344476223E+02  0.13215123200E+03 -0.15458178470E+03  0.20459411502E+03  0.00000000000E+00 0. -1.
      -14    1    6    6    0    0  0.13721746484E+02 -0.10027812413E+02 -0.22541950760E+02  0.28230885435E+02  0.00000000000E+00 0.  1.
</event>
<event>
12   0  0.9284400E-04  0.3151896E+03  0.7546771E-02  0.1077885E+00
        3   -1    0    0  502    0  0.00000000000E+00  0.00000000000E+00  0.11531730698E+03  0.11531730698E+03  0.00000000000E+00 0.  1.
       -3   -1    0    0    0  501  0.00000000000E+00  0.00000000000E+00 -0.88288726955E+03  0.88288726955E+03  0.00000000000E+00 0. -1.
        6    2    1    2  502    0 -0.12147967167E+03 -0.23417645603E+03 -0.46132899197E+03  0.55864585601E+03  0.17223481187E+03 0.  0.
       24    2    3    3    0    0 -0.59967740845E+01 -0.39631105661E+02 -0.12575133869E+03  0.15390069623E+03  0.79154527880E+02 0.  0.
       -6    2    1    2    0  501  0.12147967167E+03  0.23417645603E+03 -0.30624097059E+03  0.43955872051E+03  0.17272062276E+03 0.  0.
      -24    2    5    5    0    0  0.67858171988E+02  0.76691516491E+02 -0.21481538318E+03  0.24967059703E+03  0.75521109392E+02 0.  0.
        5    1    3    3  502    0 -0.11548289758E+03 -0.19454535037E+03 -0.33557765328E+03  0.40474515978E+03  0.46999998093E+01 0. -1.
       -5    1    5    5    0  501  0.53621499678E+02  0.15748493953E+03 -0.91425587411E+02  0.18988812348E+03  0.46999998093E+01 0.  1.
       13    1    6    6    0    0 -0.63491757445E+01  0.46810258137E+02 -0.80506798854E+02  0.93342685633E+02  0.00000000000E+00 0. -1.
      -13    1    4    4    0    0 -0.38279057802E+02 -0.10857518916E+02 -0.33488902531E+02  0.52006524360E+02  0.00000000000E+00 0.  1.
       14    1    4    4    0    0  0.32282283718E+02 -0.28773586745E+02 -0.92262436158E+02  0.10189417187E+03  0.00000000000E+00 0. -1.
      -14    1    6    6    0    0  0.74207347732E+02  0.29881258354E+02 -0.13430858433E+03  0.15632791140E+03  0.00000000000E+00 0.  1.
</event>
<event>
12   0  0.9284400E-04  0.2517650E+03  0.7546771E-02  0.1112418E+00
       21   -1    0    0  501  502  0.00000000000E+00  0.00000000000E+00  0.39535862153E+03  0.39535862153E+03  0.00000000000E+00 0. -1.
       21   -1    0    0  502  503  0.00000000000E+00  0.00000000000E+00 -0.16100960322E+03  0.16100960322E+03  0.00000000000E+00 0. -1.
       -6    2    1    2    0  503 -0.21679184396E+02 -0.18109975486E+03  0.89863168041E+02  0.26732188380E+03  0.17354680158E+03 0.  0.
      -24    2    3    3    0    0  0.32087195270E+02 -0.36050792478E+02  0.56397854406E+02  0.10898034697E+03  0.79791918796E+02 0.  0.
        6    2    1    2  501    0  0.21679184396E+02  0.18109975486E+03  0.14448585027E+03  0.28904634096E+03  0.17147745638E+03 0.  0.
       24    2    5    5    0    0  0.47717517838E+02  0.18622368113E+03  0.86809881550E+02  0.22538428951E+03  0.79409706590E+02 0.  0.
        5    1    5    5  501    0 -0.26038333442E+02 -0.51239262718E+01  0.57675968717E+02  0.63662051448E+02  0.46999998093E+01 0. -1.
       -5    1    3    3    0  503 -0.53766379667E+02 -0.14504896238E+03  0.33465313634E+02  0.15834153683E+03  0.46999998093E+01 0.  1.
       13    1    4    4    0    0  0.18363225762E+02 -0.61484040755E+02  0.42017033591E+02  0.76700237546E+02  0.00000000000E+00 0. -1.
      -13    1    6    6    0    0  0.41506076980E+02  0.60558966883E+02  0.64246497932E+02  0.97558984172E+02  0.00000000000E+00 0.  1.
       14    1    6    6    0    0  0.62114408582E+01  0.12566471425E+03  0.22563383618E+02  0.12782530534E+03  0.00000000000E+00 0. -1.
      -14    1    4    4    0    0  0.13723969509E+02  0.25433248277E+02  0.14380820816E+02  0.32280109422E+02  0.00000000000E+00 0.  1.
</event>
<event>
12   0  0.9284400E-04  0.1756405E+03  0.7546771E-02  0.1172116E+00
       21   -1    0    0  503  502  0.00000000000E+00  0.00000000000E+00  0.17186884381E+03  0.17186884381E+03  0.00000000000E+00 0.  1.
       21   -1    0    0  501  503  0.00000000000E+00  0.00000000000E+00 -0.25762889936E+03  0.25762889936E+03  0.00000000000E+00 0. -1.
        6    2    1    2  501    0 -0.17794884149E+02  0.30574815645E+02 -0.16121606636E+03  0.23833501571E+03  0.17193452942E+03 0.  0.
       24    2    3    3    0    0 -0.45350226077E+02 -0.36255946752E+02 -0.61413771175E+02  0.11501333962E+03  0.78008206748E+02 0.  0.
       -6    2    1    2    0  502  0.17794884149E+02 -0.30574815645E+02  0.75456010813E+02  0.19116272746E+03  0.17204098799E+03 0.  0.
      -24    2    5    5    0    0 -0.38265122866E+02  0.21664069916E+02  0.68490467811E+02  0.11407683810E+03  0.79931403438E+02 0.  0.
        5    1    3    3  501    0  0.27555341928E+02  0.66830762397E+02 -0.99802295187E+02  0.12332167609E+03  0.46999998093E+01 0. -1.
       -5    1    5    5    0  502  0.56060007016E+02 -0.52238885561E+02  0.69655430024E+01  0.77085889362E+02  0.46999998093E+01 0.  1.
       13    1    6    6    0    0 -0.81208865259E+01  0.30072671478E+02 -0.73742127165E+01  0.32010832245E+02  0.00000000000E+00 0. -1.
      -13    1    4    4    0    0 -0.23877340339E+02 -0.20864804242E+00  0.14743126001E+02  0.28062977033E+02  0.00000000000E+00 0.  1.
       14    1    4    4    0    0 -0.21472885738E+02 -0.36047298709E+02 -0.76156897176E+02  0.86950362585E+02  0.00000000000E+00 0. -1.
      -14    1    6    6    0    0 -0.30144236341E+02 -0.84086015622E+01  0.75864680527E+02  0.82066005851E+02  0.00000000000E+00 0.  1.
</event>
<event>
12   0  0.9284400E-04  0.2389235E+03  0.7546771E-02  0.1120607E+00
       21   -1    0    0  501  502  0.00000000000E+00  0.00000000000E+00  0.94187863425E+03  0.94187863425E+03  0.00000000000E+00 0. -1.
       21   -1    0    0  502  503  0.00000000000E+00  0.00000000000E+00 -0.11555365534E+03  0.11555365534E+03  0.00000000000E+00 0. -1.
       -6    2    1    2    0  503  0.15828983681E+03 -0.44292884032E+02  0.47840353715E+02  0.24310879421E+03  0.17261417777E+03 0.  0.
      -24    2    3    3    0    0  0.11464695783E+03  0.20567519004E+02 -0.16970905387E+02  0.14145171343E+03  0.78445062473E+02 0.  0.
        6    2    1    2  501    0 -0.15828983681E+03  0.44292884032E+02  0.77848462519E+03  0.81432349538E+03  0.17339812990E+03 0.  0.
       24    2    5    5    0    0 -0.14984869001E+03  0.83363309130E+02  0.59144457570E+03  0.62300224411E+03  0.94451251073E+02 0.  0.
        5    1    5    5  501    0 -0.84411467966E+01 -0.39070425098E+02  0.18704004949E+03  0.19132125127E+03  0.46999998093E+01 0. -1.
       -5    1    3    3    0  503  0.43642878981E+02 -0.64860403036E+02  0.64811259101E+02  0.10165708078E+03  0.46999998093E+01 0.  1.
       13    1    4    4    0    0  0.49542148978E+02 -0.27843439354E+02  0.59608131821E+01  0.57142041740E+02  0.00000000000E+00 0. -1.
      -13    1    6    6    0    0 -0.48700004748E+01 -0.15782164630E+02  0.94499181388E+02  0.95931688758E+02  0.00000000000E+00 0.  1.
       14    1    6    6    0    0 -0.14497868954E+03  0.99145473760E+02  0.49694539432E+03  0.52707055535E+03  0.00000000000E+00 0. -1.
      -14    1    4    4    0    0  0.65104808849E+02  0.48410958357E+02 -0.22931718569E+02  0.84309671693E+02  0.00000000000E+00 0.  1.
</event>
<event>
12   0  0.9284400E-04  0.3516961E+03  0.7546771E-02  0.1062142E+00
       21   -1    0    0  503  502  0.00000000000E+00  0.00000000000E+00  0.97080097806E+03  0.97080097806E+03  0.00000000000E+00 0. -1.
       21   -1    0    0  501  503  0.00000000000E+00  0.00000000000E+00 -0.33703847413E+03  0.33703847413E+03  0.00000000000E+00 0.  1.
        6    2    1    2  501    0  0.28119909239E+03 -0.11990370176E+03 -0.20015687319E+03  0.40279156427E+03  0.16949466985E+03 0.  0.
       24    2    3    3    0    0  0.18972238529E+03 -0.12591482497E+03 -0.19588594386E+03  0.31089786275E+03  0.80231237268E+02 0.  0.
       -6    2    1    2    0  502 -0.28119909239E+03  0.11990370176E+03  0.83391937712E+03  0.90504788792E+03  0.17389745438E+03 0.  0.
      -24    2    5    5    0    0 -0.26109968606E+03  0.13435582012E+03  0.82333151997E+03  0.87771580828E+03  0.79282506721E+02 0.  0.
        5    1    3    3  501    0  0.91476707098E+02  0.60111232081E+01 -0.42709293301E+01  0.91893701521E+02  0.46999998093E+01 0. -1.
       -5    1    5    5    0  502 -0.20099406332E+02 -0.14452118366E+02  0.10587857149E+02  0.27332079639E+02  0.46999998093E+01 0.  1.
       13    1    6    6    0    0 -0.13499343302E+03  0.11306746267E+03  0.49156380031E+03  0.52215174791E+03  0.00000000000E+00 0. -1.
      -13    1    4    4    0    0  0.17343850491E+03 -0.76885752886E+02 -0.15144030243E+03  0.24274780984E+03  0.00000000000E+00 0.  1.
       14    1    4    4    0    0  0.16283880380E+02 -0.49029072080E+02 -0.44445641426E+02  0.68150052905E+02  0.00000000000E+00 0. -1.
      -14    1    6    6    0    0 -0.12610625304E+03  0.21288357457E+02  0.33176771966E+03  0.35556406037E+03  0.00000000000E+00 0.  1.
</event>
<event>
12   0  0.9284400E-04  0.2650558E+03  0.7546771E-02  0.1105505E+00
       21   -1    0    0  503  502  0.00000000000E+00  0.00000000000E+00  0.43980550889E+03  0.43980550889E+03  0.00000000000E+00 0.  1.
       21   -1    0    0  501  503  0.00000000000E+00  0.00000000000E+00 -0.17971500883E+03  0.17971500883E+03  0.00000000000E+00 0.  1.
        6    2    1    2  501    0  0.17777052472E+03 -0.62937736388E+02  0.11598913692E+02  0.25619882767E+03  0.17303117171E+03 0.  0.
       24    2    3    3    0    0  0.16746851944E+03 -0.14872972266E+01  0.36092085993E+02  0.18908479581E+03  0.80015650195E+02 0.  0.
       -6    2    1    2    0  502 -0.17777052472E+03  0.62937736388E+02  0.24849158638E+03  0.36332169005E+03  0.18625537265E+03 0.  0.
      -24    2    5    5    0    0 -0.19271604214E+02  0.62750701587E+02  0.12222712716E+03  0.16062303084E+03  0.80939743922E+02 0.  0.
        5    1    3    3  501    0  0.10302005274E+02 -0.61450439161E+02 -0.24493172301E+02  0.67114031866E+02  0.46999998093E+01 0. -1.
       -5    1    5    5    0  502 -0.15849892050E+03  0.18703480113E+00  0.12626445922E+03  0.20269865920E+03  0.46999998093E+01 0.  1.
       13    1    6    6    0    0 -0.14181867200E+02  0.59822174012E+02  0.30358933127E+02  0.68567358717E+02  0.00000000000E+00 0. -1.
      -13    1    4    4    0    0  0.10080710639E+03  0.22750111806E+02  0.53037647832E+02  0.11615779084E+03  0.00000000000E+00 0.  1.
       14    1    4    4    0    0  0.66661413057E+02 -0.24237409032E+02 -0.16945561839E+02  0.72927004967E+02  0.00000000000E+00 0. -1.
      -14    1    6    6    0    0 -0.50897370142E+01  0.29285275746E+01  0.91868194030E+02  0.92055672128E+02  0.00000000000E+00 0.  1.
</event>
<event>
12   0  0.9284400E-04  0.1979127E+03  0.7546771E-02  0.1152005E+00
       21   -1    0    0  503  502  0.00000000000E+00  0.00000000000E+00  0.12667161861E+04  0.12667161861E+04  0.00000000000E+00 0.  1.
       21   -1    0    0  501  503  0.00000000000E+00  0.00000000000E+00 -0.81534832132E+02  0.81534832132E+02  0.00000000000E+00 0. -1.
        6    2    1    2  501    0 -0.75745349273E+02  0.61100364012E+02  0.60889254649E+02  0.20706743086E+03  0.17233341862E+03 0.  0.
       24    2    3    3    0    0 -0.72282698373E+02  0.63737596685E+02 -0.18090467369E+02  0.12782835315E+03  0.82009469850E+02 0.  0.
       -6    2    1    2    0  502  0.75745349273E+02 -0.61100364012E+02  0.11242920993E+04  0.11411835874E+04  0.16969573677E+03 0.  0.
      -24    2    5    5    0    0  0.88384023566E+02 -0.72746760101E+01  0.48260579048E+03  0.49710257560E+03  0.79611337947E+02 0.  0.
        5    1    3    3  501    0 -0.34626509005E+01 -0.26372326736E+01  0.78979722018E+02  0.79239077706E+02  0.46999998093E+01 0. -1.
       -5    1    5    5    0  502 -0.12638674292E+02 -0.53825688002E+02  0.64168630886E+03  0.64408101180E+03  0.46999998093E+01 0.  1.
       13    1    6    6    0    0  0.33046168384E+02 -0.33533919214E+02  0.11237139077E+03  0.12183555494E+03  0.00000000000E+00 0. -1.
      -13    1    4    4    0    0 -0.49015285457E+02 -0.92875178648E+01 -0.79955094891E+01  0.50524096910E+02  0.00000000000E+00 0.  1.
       14    1    4    4    0    0 -0.23267412916E+02  0.73025114550E+02 -0.10094957880E+02  0.77304256244E+02  0.00000000000E+00 0. -1.
      -14    1    6    6    0    0  0.55337855182E+02  0.26259243204E+02  0.37023439971E+03  0.37526702066E+03  0.00000000000E+00 0.  1.
</event>
<event>
12   0  0.9284400E-04  0.1999402E+03  0.7546771E-02  0.1149843E+00
       21   -1    0    0  503  502  0.00000000000E+00  0.00000000000E+00  0.95895452127E+03  0.95895452127E+03  0.00000000000E+00 0. -1.
       21   -1    0    0  501  503  0.00000000000E+00  0.00000000000E+00 -0.57867027599E+02  0.57867027599E+02  0.00000000000E+00 0. -1.
        6    2    1    2  501    0 -0.90790291897E+02 -0.50532741748E+02  0.18147627764E+03  0.27001798190E+03  0.17082047919E+03 0.  0.
       24    2    3    3    0    0 -0.72341545163E+02 -0.19469065993E+02  0.30318810197E+02  0.11453171829E+03  0.81153808021E+02 0.  0.
       -6    2    1    2    0  502  0.90790291897E+02  0.50532741748E+02  0.71961121602E+03  0.74680356697E+03  0.17052516035E+03 0.  0.
      -24    2    5    5    0    0  0.13258540185E+02  0.65511623875E+02  0.53376990215E+03  0.54482677777E+03  0.86361725212E+02 0.  0.
        5    1    3    3  501    0 -0.18448746734E+02 -0.31063675754E+02  0.15115746745E+03  0.15548626361E+03  0.46999998093E+01 0. -1.
       -5    1    5    5    0  502  0.77531751713E+02 -0.14978882128E+02  0.18584131387E+03  0.20197678920E+03  0.46999998093E+01 0.  1.
       13    1    6    6    0    0  0.29606274984E+01  0.68052501734E+02  0.20770255842E+03  0.21858696457E+03  0.00000000000E+00 0. -1.
      -13    1    4    4    0    0  0.30043711162E+01 -0.21040152025E+02 -0.15525947029E+02  0.26320510523E+02  0.00000000000E+00 0.  1.
       14    1    4    4    0    0 -0.75345916280E+02  0.15710860316E+01  0.45844757226E+02  0.88211207771E+02  0.00000000000E+00 0. -1.
      -14    1    6    6    0    0  0.10297912686E+02 -0.25408778584E+01  0.32606734373E+03  0.32623981320E+03  0.00000000000E+00 0.  1.
</event>
<event>
12   0  0.9284400E-04  0.3024058E+03  0.7546771E-02  0.1084044E+00
        2   -1    0    0  502    0  0.00000000000E+00  0.00000000000E+00  0.56820757066E+03  0.56820757066E+03  0.00000000000E+00 0.  1.
       -2   -1    0    0    0  501  0.00000000000E+00  0.00000000000E+00 -0.16188147352E+03  0.16188147352E+03  0.00000000000E+00 0. -1.
        6    2    1    2  502    0  0.21361751201E+03 -0.12622903188E+03  0.17541688198E+03  0.34965465800E+03  0.17297712986E+03 0.  0.
       24    2    3    3    0    0  0.46763336579E+02 -0.37865370188E+01  0.68278565661E+02  0.11655985062E+03  0.81994443337E+02 0.  0.
       -6    2    1    2    0  501 -0.21361751201E+03  0.12622903188E+03  0.23090921517E+03  0.38043438618E+03  0.17275718976E+03 0.  0.
      -24    2    5    5    0    0 -0.18376665614E+03  0.62606840687E+02  0.10221134762E+03  0.23372348707E+03  0.80558726496E+02 0.  0.
        5    1    3    3  502    0  0.16685417543E+03 -0.12244249486E+03  0.10713831631E+03  0.23309480738E+03  0.46999998093E+01 0. -1.
       -5    1    5    5    0  501 -0.29850855867E+02  0.63622191188E+02  0.12869786755E+03  0.14671089911E+03  0.46999998093E+01 0.  1.
       13    1    6    6    0    0 -0.15079358023E+03  0.79028018884E+02  0.98531462598E+02  0.19670429769E+03  0.00000000000E+00 0. -1.
      -13    1    4    4    0    0 -0.43070973407E+01 -0.15993020398E+02  0.61409076723E+02  0.63603478623E+02  0.00000000000E+00 0.  1.
       14    1    4    4    0    0  0.51070433920E+02  0.12206483379E+02  0.68694889374E+01  0.52956372001E+02  0.00000000000E+00 0. -1.
      -14    1    6    6    0    0 -0.32973075914E+02 -0.16421178198E+02  0.36798850193E+01  0.37019189380E+02  0.00000000000E+00 0.  1.
</event>
<event>
12   0  0.9284400E-04  0.1859639E+03  0.7546771E-02  0.1164416E+00
       21   -1    0    0  503  502  0.00000000000E+00  0.00000000000E+00  0.97289963891E+02  0.97289963891E+02  0.00000000000E+00 0.  1.
       21   -1    0    0  501  503  0.00000000000E+00  0.00000000000E+00 -0.43181028413E+03  0.43181028413E+03  0.00000000000E+00 0.  1.
        6    2    1    2  501    0  0.58576274006E+02  0.35017481346E+00 -0.29424920281E+03  0.34808786172E+03  0.17649720570E+03 0.  0.
       24    2    3    3    0    0  0.22765625705E+02  0.47235920406E+01 -0.30027778761E+03  0.31121018361E+03  0.78386495090E+02 0.  0.
       -6    2    1    2    0  502 -0.58576274006E+02 -0.35017481346E+00 -0.40271117426E+02  0.18101238630E+03  0.16647047365E+03 0.  0.
      -24    2    5    5    0    0 -0.51636085021E+02 -0.62085325850E+01 -0.88106877918E+02  0.13209575765E+03  0.83556185286E+02 0.  0.
        5    1    3    3  501    0  0.35810648301E+02 -0.43734172272E+01  0.60285847971E+01  0.36877678111E+02  0.46999998093E+01 0. -1.
       -5    1    5    5    0  502 -0.69401889849E+01  0.58583577715E+01  0.47835760492E+02  0.48916628655E+02  0.46999998093E+01 0.  1.
       13    1    6    6    0    0 -0.47851340483E+02 -0.40104272592E+02 -0.44191643044E+02  0.76491860881E+02  0.00000000000E+00 0. -1.
      -13    1    4    4    0    0  0.45126345854E+02  0.15119898461E+02 -0.11743745598E+03  0.12671446045E+03  0.00000000000E+00 0.  1.
       14    1    4    4    0    0 -0.22360720150E+02 -0.10396306420E+02 -0.18284033163E+03  0.18449572316E+03  0.00000000000E+00 0. -1.
      -14    1    6    6    0    0 -0.37847445379E+01  0.33895740007E+02 -0.43915234874E+02  0.55603896769E+02  0.00000000000E+00 0.  1.
</event>
<event>
12   0  0.9284400E-04  0.1922738E+03  0.7546771E-02  0.1156989E+00
       21   -1    0    0  501  502  0.00000000000E+00  0.00000000000E+00  0.28128158482E+03  0.28128158482E+03  0.00000000000E+00 0. -1.
       21   -1    0    0  502  503  0.00000000000E+00  0.00000000000E+00 -0.13603430485E+03  0.13603430485E+03  0.00000000000E+00 0.  1.
       -6    2    1    2    0  503 -0.71126677139E+02 -0.43212311322E+02  0.28114516865E+02  0.19431844709E+03  0.17332894960E+03 0.  0.
      -24    2    3    3    0    0 -0.15419727855E+02 -0.88868221614E+02  0.15620093761E+02  0.12106595942E+03  0.79231624876E+02 0.  0.
        6    2    1    2  501    0  0.71126677139E+02  0.43212311322E+02  0.11713276311E+03  0.22299744257E+03  0.17053289170E+03 0.  0.
       24    2    5    5    0    0  0.37490492956E+02  0.84287242865E+02  0.39113793753E+02  0.12851150465E+03  0.80470128587E+02 0.  0.
        5    1    5    5  501    0  0.33636184183E+02 -0.41074931542E+02  0.78018969353E+02  0.94485937921E+02  0.46999998093E+01 0. -1.
       -5    1    3    3    0  503 -0.55706949284E+02  0.45655910291E+02  0.12494423104E+02  0.73252487671E+02  0.46999998093E+01 0.  1.
       13    1    4    4    0    0  0.46772380452E+01  0.13640468325E+02 -0.35755558181E+01  0.14856767187E+02  0.00000000000E+00 0. -1.
      -13    1    6    6    0    0  0.10069966807E+01  0.59490445536E+02  0.55585347517E+02  0.81423940036E+02  0.00000000000E+00 0.  1.
       14    1    6    6    0    0  0.36483496275E+02  0.24796797328E+02 -0.16471553764E+02  0.47087564617E+02  0.00000000000E+00 0. -1.
      -14    1    4    4    0    0 -0.20096965900E+02 -0.10250868994E+03  0.19195649579E+02  0.10620919223E+03  0.00000000000E+00 0.  1.
</event>
<event>
12   0  0.9284400E-04  0.2727265E+03  0.7546771E-02  0.1099808E+00
       21   -1    0    0  501  502  0.00000000000E+00  0.00000000000E+00  0.87508087044E+02  0.87508087044E+02  0.00000000000E+00 0. -1.
       21   -1    0    0  502  503  0.00000000000E+00  0.00000000000E+00 -0.14756043094E+04  0.14756043094E+04  0.00000000000E+00 0.  1.
       -6    2    1    2    0  503 -0.21214704988E+03  0.88135542571E+01 -0.12040642692E+04  0.12345648980E+04  0.17115978929E+03 0.  0.
      -24    2    3    3    0    0 -0.78683465072E+02  0.48118156848E+02 -0.37957223666E+03  0.39840308232E+03  0.78380408698E+02 0.  0.
        6    2    1    2  501    0  0.21214704988E+03 -0.88135542571E+01 -0.18403195320E+03  0.32854749850E+03  0.17026934387E+03 0.  0.
       24    2    5    5    0    0  0.19979857072E+03  0.29911637277E+02 -0.10877100712E+03  0.24288288854E+03  0.79666747445E+02 0.  0.
        5    1    5    5  501    0  0.12348479156E+02 -0.38725191534E+02 -0.75260946084E+02  0.85664609965E+02  0.46999998093E+01 0. -1.
       -5    1    3    3    0  503 -0.13346358480E+03 -0.39304602591E+02 -0.82449203254E+03  0.83616181566E+03  0.46999998093E+01 0.  1.
       13    1    4    4    0    0 -0.17456053427E+02  0.40433950722E+02 -0.26145383692E+03  0.26513718527E+03  0.00000000000E+00 0. -1.
      -13    1    6    6    0    0  0.64936679976E+02  0.43071975410E+02 -0.18574837137E+02  0.80106129895E+02  0.00000000000E+00 0.  1.
       14    1    6    6    0    0  0.13486189074E+03 -0.13160338133E+02 -0.90196169984E+02  0.16277675864E+03  0.00000000000E+00 0. -1.
      -14    1    4    4    0    0 -0.61227411645E+02  0.76842061258E+01 -0.11811839973E+03  0.13326589705E+03  0.00000000000E+00 0.  1.
</event>
<event>
12   0  0.9284400E-04  0.2329288E+03  0.7546771E-02  0.1124954E+00
       21   -1    0    0  501  502  0.00000000000E+00  0.00000000000E+00  0.28128717472E+03  0.28128717472E+03  0.00000000000E+00 0. -1.
       21   -1    0    0  502  503  0.00000000000E+00  0.00000000000E+00 -0.19118147646E+03  0.19118147646E+03  0.00000000000E+00 0. -1.
        6    2    1    2  501    0 -0.12719099337E+03  0.89203576649E+02  0.44053210135E+02  0.23503095690E+03  0.17077481809E+03 0.  0.
       24    2    3    3    0    0  0.36568888379E+01  0.42965950454E+02  0.27735081335E+02  0.95218733968E+02  0.80236692526E+02 0.  0.
       -6    2    1    2    0  503  0.12719099337E+03 -0.89203576649E+02  0.46052488118E+02  0.23743769429E+03  0.17355402653E+03 0.  0.
      -24    2    5    5    0    0  0.15810356937E+03 -0.87579848511E+02  0.54364649872E+02  0.20504315957E+03  0.80126235501E+02 0.  0.
        5    1    3    3  501    0 -0.13084788221E+03  0.46237626195E+02  0.16318128799E+02  0.13981222293E+03  0.46999998093E+01 0. -1.
       -5    1    5    5    0  503 -0.30912576006E+02 -0.16237281384E+01 -0.83121617542E+01  0.32394534718E+02  0.46999998093E+01 0.  1.
       13    1    6    6    0    0  0.38693247984E+02 -0.13384240479E+02 -0.20478193170E+02  0.45778398052E+02  0.00000000000E+00 0. -1.
      -13    1    4    4    0    0 -0.23035507895E+01  0.50885339524E+02 -0.13591969564E+02  0.52719690452E+02  0.00000000000E+00 0.  1.
       14    1    4    4    0    0  0.59604396274E+01 -0.79193890698E+01  0.41327050899E+02  0.42499043517E+02  0.00000000000E+00 0. -1.
      -14    1    6    6    0    0  0.11941032139E+03 -0.74195608032E+02  0.74842843042E+02  0.15926476151E+03  0.00000000000E+00 0.  1.
</event>
<event>
12   0  0.9284400E-04  0.1756462E+03  0.7546771E-02  0.1172357E+00
       21   -1    0    0  501  502  0.00000000000E+00  0.00000000000E+00  0.25724372151E+03  0.25724372151E+03  0.00000000000E+00 0. -1.
       21   -1    0    0  502  503  0.00000000000E+00  0.00000000000E+00 -0.12345808559E+03  0.12345808559E+03  0.00000000000E+00 0. -1.
        6    2    1    2  501    0  0.45295881284E+01  0.92647012511E+01  0.10208980504E+03  0.20221870385E+03  0.17425189823E+03 0.  0.
       24    2    3    3    0    0 -0.16569942073E+02 -0.10142729205E+02 -0.17422354593E+02  0.79226489341E+02  0.74805482672E+02 0.  0.
       -6    2    1    2    0  503 -0.45295881284E+01 -0.92647012511E+01  0.31695830883E+02  0.17848310325E+03  0.17534320800E+03 0.  0.
      -24    2    5    5    0    0 -0.14309758150E+02  0.61768290703E+02  0.26251384457E+02  0.10642014698E+03  0.81338930295E+02 0.  0.
        5    1    3    3  501    0  0.21099530201E+02  0.19407430456E+02  0.11951215963E+03  0.12299221451E+03  0.46999998093E+01 0. -1.
       -5    1    5    5    0  503  0.97801700219E+01 -0.71032991954E+02  0.54444464253E+01  0.72062956272E+02  0.46999998093E+01 0.  1.
       13    1    6    6    0    0 -0.42734155553E+02  0.23857363012E+02 -0.56957261756E+01  0.49272945085E+02  0.00000000000E+00 0. -1.
      -13    1    4    4    0    0 -0.14563536004E+02  0.24086338660E+02  0.15122893334E+02  0.31952311243E+02  0.00000000000E+00 0.  1.
       14    1    4    4    0    0 -0.20064060687E+01 -0.34229067865E+02 -0.32545247927E+02  0.47274178098E+02  0.00000000000E+00 0. -1.
      -14    1    6    6    0    0  0.28424397402E+02  0.37910927691E+02  0.31947110633E+02  0.57147201890E+02  0.00000000000E+00 0.  1.
</event>
<event>
12   0  0.9284400E-04  0.2161393E+03  0.7546771E-02  0.1136905E+00
       21   -1    0    0  503  502  0.00000000000E+00  0.00000000000E+00  0.48754471605E+02  0.48754471605E+02  0.00000000000E+00 0. -1.
       21   -1    0    0  501  503  0.00000000000E+00  0.00000000000E+00 -0.10730930941E+04  0.10730930941E+04  0.00000000000E+00 0.  1.
        6    2    1    2  501    0 -0.12836383429E+03  0.11442956163E+02 -0.69836784225E+03  0.73104983174E+03  0.17351656464E+03 0.  0.
       24    2    3    3    0    0 -0.83001262605E+02 -0.39704073879E+02 -0.59179575232E+03  0.60434749577E+03  0.80920084640E+02 0.  0.
       -6    2    1    2    0  502  0.12836383429E+03 -0.11442956163E+02 -0.32597078028E+03  0.39079773400E+03  0.17279381963E+03 0.  0.
      -24    2    5    5    0    0  0.76911495449E+02 -0.81551607829E+01 -0.79569941711E+02  0.13901684510E+03  0.83740210275E+02 0.  0.
        5    1    3    3  501    0 -0.45362571683E+02  0.51147030042E+02 -0.10657208993E+03  0.12670233598E+03  0.46999998093E+01 0. -1.
       -5    1    5    5    0  502  0.51452338838E+02 -0.32877953802E+01 -0.24640083857E+03  0.25178088891E+03  0.46999998093E+01 0.  1.
       13    1    6    6    0    0  0.17879263210E+02 -0.41774233474E+02 -0.24885813762E+02  0.51807898644E+02  0.00000000000E+00 0. -1.
      -13    1    4    4    0    0 -0.36323150062E+02 -0.50579608110E+02 -0.19584506664E+03  0.20550658898E+03  0.00000000000E+00 0.  1.
       14    1    4    4    0    0 -0.46678112543E+02  0.10875534231E+02 -0.39595068568E+03  0.39884090679E+03  0.00000000000E+00 0. -1.
      -14    1    6    6    0    0  0.59032232239E+02  0.33619072691E+02 -0.54684127949E+02  0.87208946452E+02  0.00000000000E+00 0.  1.
</event>
<event>
12   0  0.9284400E-04  0.2348148E+03  0.7546771E-02  0.1123296E+00
       -2   -1    0    0    0  501  0.00000000000E+00  0.00000000000E+00  0.24616725817E+03  0.24616725817E+03  0.00000000000E+00 0. -1.
        2   -1    0    0  502    0  0.00000000000E+00  0.00000000000E+00 -0.27558469410E+03  0.27558469410E+03  0.00000000000E+00 0.  1.
        6    2    1    2  502    0 -0.21316496172E+02  0.15722356795E+03 -0.12760986737E+03  0.26758608500E+03  0.17362140222E+03 0.  0.
       24    2    3    3    0    0 -0.47787717438E+02  0.16491521230E+03 -0.14180879762E+03  0.23622390130E+03  0.78811821940E+02 0.  0.
       -6    2    1    2    0  501  0.21316496172E+02 -0.15722356795E+03  0.98192431437E+02  0.25416586726E+03  0.17258299789E+03 0.  0.
      -24    2    5    5    0    0 -0.10845169064E+02 -0.24880885899E+02  0.35861615577E+01  0.88270133437E+02  0.83917100326E+02 0.  0.
        5    1    3    3  502    0  0.26471221266E+02 -0.76916443535E+01  0.14198930248E+02  0.31362183702E+02  0.46999998093E+01 0. -1.
       -5    1    5    5    0  501  0.32161665236E+02 -0.13234268205E+03  0.94606269880E+02  0.16589573383E+03  0.46999998093E+01 0.  1.
       13    1    6    6    0    0  0.56025214296E+01 -0.29823849944E+02  0.38701536888E+02  0.49179866097E+02  0.00000000000E+00 0. -1.
      -13    1    4    4    0    0 -0.60735183649E+02  0.11692791328E+03 -0.13008485536E+03  0.18515660677E+03  0.00000000000E+00 0.  1.
       14    1    4    4    0    0  0.12947466211E+02  0.47987299026E+02 -0.11723942264E+02  0.51067294536E+02  0.00000000000E+00 0. -1.
      -14    1    6    6    0    0 -0.16447690494E+02  0.49429640448E+01 -0.35115375330E+02  0.39090267340E+02  0.00000000000E+00 0.  1.
</event>
<event>
12   0  0.9284400E-04  0.1823896E+03  0.7546771E-02  0.1166124E+00
       21   -1    0    0  501  502  0.00000000000E+00  0.00000000000E+00  0.33229015241E+03  0.33229015241E+03  0.00000000000E+00 0.  1.
       21   -1    0    0  502  503  0.00000000000E+00  0.00000000000E+00 -0.14191749278E+03  0.14191749278E+03  0.00000000000E+00 0.  1.
       -6    2    1    2    0  503 -0.28352842007E+01  0.54953649257E+02 -0.36105258523E+02  0.18341867865E+03  0.17120420434E+03 0.  0.
      -24    2    3    3    0    0 -0.59337789508E+02  0.84295952647E+01 -0.43750711646E+02  0.10967884100E+03  0.80766899486E+02 0.  0.
        6    2    1    2  501    0  0.28352842007E+01 -0.54953649257E+02  0.22647791815E+03  0.29078896654E+03  0.17389086591E+03 0.  0.
       24    2    5    5    0    0  0.43668099531E+02 -0.49370145129E+02  0.22623986001E+03  0.24930835666E+03  0.81399436697E+02 0.  0.
        5    1    5    5  501    0 -0.40832815330E+02 -0.55835041282E+01  0.23805813690E+00  0.41480609880E+02  0.46999998093E+01 0. -1.
       -5    1    3    3    0  503  0.56502505308E+02  0.46524053993E+02  0.76454531224E+01  0.73739837656E+02  0.46999998093E+01 0.  1.
       13    1    4    4    0    0  0.45626104183E+01  0.23479861164E+02  0.89039061513E+01  0.25522555492E+02  0.00000000000E+00 0. -1.
      -13    1    6    6    0    0 -0.21475019286E+02 -0.24090873088E+02  0.99222660069E+02  0.10433926821E+03  0.00000000000E+00 0.  1.
       14    1    6    6    0    0  0.65143118816E+02 -0.25279272041E+02  0.12701719994E+03  0.14496908845E+03  0.00000000000E+00 0. -1.
      -14    1    4    4    0    0 -0.63900399927E+02 -0.15050265899E+02 -0.52654617797E+02  0.84156285504E+02  0.00000000000E+00 0.  1.
</event>
<event>
12   0  0.9284400E-04  0.2522109E+03  0.7546771E-02  0.1112454E+00
       21   -1    0    0  503  502  0.00000000000E+00  0.00000000000E+00  0.48695654021E+03  0.48695654021E+03  0.00000000000E+00 0. -1.
       21   -1    0    0  501  503  0.00000000000E+00  0.00000000000E+00 -0.26952328602E+03  0.26952328602E+03  0.00000000000E+00 0.  1.
        6    2    1    2  501    0 -0.90855432056E+02 -0.15405358068E+03 -0.16488188154E+03  0.29846758530E+03  0.17294406425E+03 0.  0.
       24    2    3    3    0    0 -0.66931123396E+02 -0.97391451620E+02 -0.24989957462E+02  0.14557935870E+03  0.81264885262E+02 0.  0.
       -6    2    1    2    0  502  0.90855432056E+02  0.15405358068E+03  0.38231513573E+03  0.45801224093E+03  0.17782894753E+03 0.  0.
      -24    2    5    5    0    0  0.29415095067E+02  0.13962237541E+02  0.20511679680E+03  0.22387159783E+03  0.83578705976E+02 0.  0.
        5    1    3    3  501    0 -0.23924308660E+02 -0.56662129065E+02 -0.13989192407E+03  0.15288822661E+03  0.46999998093E+01 0. -1.
       -5    1    5    5    0  502  0.61440336989E+02  0.14009134314E+03  0.17719833893E+03  0.23414064310E+03  0.46999998093E+01 0.  1.
       13    1    6    6    0    0  0.37799270690E+02  0.44102301685E+02  0.12395692345E+03  0.13689089360E+03  0.00000000000E+00 0. -1.
      -13    1    4    4    0    0 -0.14354367388E+02 -0.88366524805E+02 -0.94838224083E+01  0.90025737745E+02  0.00000000000E+00 0.  1.
       14    1    4    4    0    0 -0.52576756008E+02 -0.90249268152E+01 -0.15506135054E+02  0.55553620950E+02  0.00000000000E+00 0. -1.
      -14    1    6    6    0    0 -0.83841756237E+01 -0.30140064144E+02  0.81159873349E+02  0.86980704237E+02  0.00000000000E+00 0.  1.
</event>
<event>
12   0  0.9284400E-04  0.1915943E+03  0.7546771E-02  0.1157931E+00
       21   -1    0    0  501  502  0.00000000000E+00  0.00000000000E+00  0.37235944204E+02  0.37235944204E+02  0.00000000000E+00 0.  1.
       21   -1    0    0  502  503  0.00000000000E+00  0.00000000000E+00 -0.98112374862E+03  0.98112374862E+03  0.00000000000E+00 0.  1.
       -6    2    1    2    0  503 -0.67562522514E+02  0.45459249188E+02 -0.41238223846E+03  0.45471692351E+03  0.17342759914E+03 0.  0.
      -24    2    3    3    0    0  0.16746467539E+02 -0.12985142615E+02 -0.14142910655E+03  0.16495591435E+03  0.82214374634E+02 0.  0.
        6    2    1    2  501    0  0.67562522514E+02 -0.45459249188E+02 -0.53150556595E+03  0.56364276931E+03  0.16900818612E+03 0.  0.
       24    2    5    5    0    0  0.14505487734E+02 -0.48565224176E+02 -0.14336727718E+03  0.17185441161E+03  0.80067299508E+02 0.  0.
        5    1    5    5  501    0  0.53057034780E+02  0.31059749883E+01 -0.38813828878E+03  0.39178835770E+03  0.46999998093E+01 0. -1.
       -5    1    3    3    0  503 -0.84308990053E+02  0.58444391803E+02 -0.27095313191E+03  0.28976100916E+03  0.46999998093E+01 0.  1.
       13    1    4    4    0    0  0.40893673477E+02  0.18621807855E+02 -0.69467546430E+02  0.82733332250E+02  0.00000000000E+00 0. -1.
      -13    1    6    6    0    0  0.43722313497E+02 -0.23959112740E+02 -0.11138957278E+03  0.12203817725E+03  0.00000000000E+00 0.  1.
       14    1    6    6    0    0 -0.29216825763E+02 -0.24606111436E+02 -0.31977704390E+02  0.49816234359E+02  0.00000000000E+00 0. -1.
      -14    1    4    4    0    0 -0.24147205938E+02 -0.31606950470E+02 -0.71961560117E+02  0.82222582099E+02  0.00000000000E+00 0.  1.
</event>
<event>
12   0  0.9284400E-04  0.1767721E+03  0.7546771E-02  0.1171253E+00
       21   -1    0    0  501  502  0.00000000000E+00  0.00000000000E+00  0.88020598429E+02  0.88020598429E+02  0.00000000000E+00 0.  1.
       21   -1    0    0  502  503  0.00000000000E+00  0.00000000000E+00 -0.14551797559E+04  0.14551797559E+04  0.00000000000E+00 0.  1.
       -6    2    1    2    0  503  0.36245394834E+02  0.18035117230E+02 -0.13546512470E+04  0.13659862582E+04  0.17087850222E+03 0.  0.
      -24    2    3    3    0    0 -0.32442434122E+02 -0.46393850398E+01 -0.42797652095E+03  0.43648085812E+03  0.79231317012E+02 0.  0.
        6    2    1    2  501    0 -0.36245394834E+02 -0.18035117230E+02 -0.12507910424E+02  0.17721409607E+03  0.17207380371E+03 0.  0.
       24    2    5    5    0    0  0.43580365363E+01  0.29316262403E+02  0.42331047365E+02  0.94026398173E+02  0.78553232006E+02 0.  0.
        5    1    5    5  501    0 -0.40603431370E+02 -0.47351379633E+02 -0.54838957789E+02  0.83187697900E+02  0.46999998093E+01 0. -1.
       -5    1    3    3    0  503  0.68687828956E+02  0.22674502270E+02 -0.92667472608E+03  0.92950540012E+03  0.46999998093E+01 0.  1.
       13    1    4    4    0    0 -0.43403652645E+00 -0.32263851942E+02 -0.85178513409E+02  0.91085254989E+02  0.00000000000E+00 0. -1.
      -13    1    6    6    0    0 -0.25891931073E+02  0.11591967093E+02  0.50595155171E+02  0.58005478384E+02  0.00000000000E+00 0.  1.
       14    1    6    6    0    0  0.30249967609E+02  0.17724295310E+02 -0.82641078053E+01  0.36020919789E+02  0.00000000000E+00 0. -1.
      -14    1    4    4    0    0 -0.32008397595E+02  0.27624466902E+02 -0.34279800754E+03  0.34539560313E+03  0.00000000000E+00 0.  1.
</event>
<event>
12   0  0.9284400E-04  0.1774804E+03  0.7546771E-02  0.1170722E+00
       21   -1    0    0  503  502  0.00000000000E+00  0.00000000000E+00  0.65746882225E+03  0.65746882225E+03  0.00000000000E+00 0.  1.
       21   -1    0    0  501  503  0.00000000000E+00  0.00000000000E+00 -0.22485946252E+03  0.22485946252E+03  0.00000000000E+00 0.  1.
        6    2    1    2  501    0 -0.31190546046E+02  0.35032915096E+01 -0.17535915757E+03  0.24949977085E+03  0.17468307959E+03 0.  0.
       24    2    3    3    0    0  0.10336132388E+02  0.59836236387E+02 -0.72998644815E+02  0.12541258267E+03  0.81928645350E+02 0.  0.
       -6    2    1    2    0  502  0.31190546046E+02 -0.35032915096E+01  0.60796851731E+03  0.63282851392E+03  0.17280360756E+03 0.  0.
      -24    2    5    5    0    0 -0.13085675032E+02 -0.33816666778E+02  0.53425652362E+03  0.54153321019E+03  0.80705531790E+02 0.  0.
        5    1    3    3  501    0 -0.41526678434E+02 -0.56332944877E+02 -0.10236051276E+03  0.12408718818E+03  0.46999998093E+01 0. -1.
       -5    1    5    5    0  502  0.44276221077E+02  0.30313375269E+02  0.73711993684E+02  0.91295303735E+02  0.46999998093E+01 0.  1.
       13    1    6    6    0    0 -0.20540139312E+02 -0.53631708090E+02  0.25099097566E+03  0.25747762485E+03  0.00000000000E+00 0. -1.
      -13    1    4    4    0    0 -0.15790408657E+02  0.60045873952E+01 -0.62397500452E+02  0.64643948966E+02  0.00000000000E+00 0.  1.
       14    1    4    4    0    0  0.26126541045E+02  0.53831648992E+02 -0.10601144363E+02  0.60768633702E+02  0.00000000000E+00 0. -1.
      -14    1    6    6    0    0  0.74544642808E+01  0.19815041311E+02  0.28326554796E+03  0.28405558534E+03  0.00000000000E+00 0.  1.
</event>
<event>
12   0  0.9284400E-04  0.2025239E+03  0.7546771E-02  0.1147969E+00
       21   -1    0    0  503  502  0.00000000000E+00  0.00000000000E+00  0.87856384912E+02  0.87856384912E+02  0.00000000000E+00 0. -1.
       21   -1    0    0  501  503  0.00000000000E+00  0.00000000000E+00 -0.48388027268E+03  0.48388027268E+03  0.00000000000E+00 0. -1.
        6    2    1    2  501    0 -0.94293286809E+02  0.40293899767E+02 -0.25652212433E+03  0.32581664152E+03  0.17273697150E+03 0.  0.
       24    2    3    3    0    0 -0.33061428407E+02  0.65568984275E+02 -0.23029052290E+03  0.25441385941E+03  0.79374663328E+02 0.  0.
       -6    2    1    2    0  502  0.94293286809E+02 -0.40293899767E+02 -0.13950176344E+03  0.24592001608E+03  0.17464561262E+03 0.  0.
      -24    2    5    5    0    0  0.93943353209E+02 -0.39557998385E+01 -0.26054940416E+02  0.12670235123E+03  0.80830835220E+02 0.  0.
        5    1    3    3  501    0 -0.61231858402E+02 -0.25275084508E+02 -0.26231601439E+02  0.71402782106E+02  0.46999998093E+01 0. -1.
       -5    1    5    5    0  502  0.34993359994E+00 -0.36338099928E+02 -0.11344682302E+03  0.11921766485E+03  0.46999998093E+01 0.  1.
       13    1    6    6    0    0  0.26011284679E+02  0.12942990499E+02  0.26377220423E+02  0.39241122448E+02  0.00000000000E+00 0. -1.
      -13    1    4    4    0    0  0.25295399764E+02  0.16988652301E+02 -0.46944733660E+02  0.55966772058E+02  0.00000000000E+00 0.  1.
       14    1    4    4    0    0 -0.58356828171E+02  0.48580331974E+02 -0.18334578924E+03  0.19844708735E+03  0.00000000000E+00 0. -1.
      -14    1    6    6    0    0  0.67932068530E+02 -0.16898790338E+02 -0.52432160839E+02  0.87461228781E+02  0.00000000000E+00 0.  1.
</event>
<event>
12   0  0.9284400E-04  0.1799503E+03  0.7546771E-02  0.1167861E+00
       21   -1    0    0  503  502  0.00000000000E+00  0.00000000000E+00  0.55680529535E+03  0.55680529535E+03  0.00000000000E+00 0.  1.
       21   -1    0    0  501  503  0.00000000000E+00  0.00000000000E+00 -0.18261758568E+03  0.18261758568E+03  0.00000000000E+00 0.  1.
        6    2    1    2  501    0  0.39345079867E+02  0.28639460087E+02 -0.11813145970E+03  0.21526062187E+03  0.17324502755E+03 0.  0.
       24    2    3    3    0    0  0.53256107007E+01 -0.31417253472E+02 -0.11888608716E+03  0.14607397152E+03  0.78665732619E+02 0.  0.
       -6    2    1    2    0  502 -0.39345079867E+02 -0.28639460087E+02  0.49231916937E+03  0.52416225917E+03  0.17320408604E+03 0.  0.
      -24    2    5    5    0    0 -0.87912587559E+02 -0.46652462914E+02  0.32939343129E+03  0.35313548582E+03  0.79369789093E+02 0.  0.
        5    1    3    3  501    0  0.34019469167E+02  0.60056713559E+02  0.75462745900E+00  0.69186650350E+02  0.46999998093E+01 0. -1.
       -5    1    5    5    0  502  0.48567507692E+02  0.18013002827E+02  0.16292573808E+03  0.17102677335E+03  0.46999998093E+01 0.  1.
       13    1    6    6    0    0 -0.82072690704E+02 -0.45800470391E+02  0.17510669774E+03  0.19873591835E+03  0.00000000000E+00 0. -1.
      -13    1    4    4    0    0 -0.11295252594E+02  0.37739689836E+00  0.82373156162E+01  0.13984939333E+02  0.00000000000E+00 0.  1.
       14    1    4    4    0    0  0.16620863295E+02 -0.31794650370E+02 -0.12712340278E+03  0.13208903218E+03  0.00000000000E+00 0. -1.
      -14    1    6    6    0    0 -0.58398968558E+01 -0.85199252299E+00  0.15428673355E+03  0.15439956747E+03  0.00000000000E+00 0.  1.
</event>
<event>
12   0  0.9284400E-04  0.2066036E+03  0.7546771E-02  0.1144494E+00
       21   -1    0    0  503  502  0.00000000000E+00  0.00000000000E+00  0.37339162705E+03  0.37339162705E+03  0.00000000000E+00 0. -1.
       21   -1    0    0  501  503  0.00000000000E+00  0.00000000000E+00 -0.12094700471E+03  0.12094700471E+03  0.00000000000E+00 0. -1.
        6    2    1    2  501    0 -0.98386885608E+02 -0.56707234940E+02  0.18683515338E+03  0.27855419457E+03  0.17259598784E+03 0.  0.
       24    2    3    3    0    0 -0.39990333605E+02  0.21190648781E+02  0.14434073132E+03  0.17222403197E+03  0.82332254255E+02 0.  0.
       -6    2    1    2    0  502  0.98386885608E+02  0.56707234940E+02  0.65609468960E+02  0.21578443720E+03  0.17135527762E+03 0.  0.
      -24    2    5    5    0    0  0.48004633751E+02  0.86843946528E+02  0.57551552347E+00  0.12804563287E+03  0.80926120440E+02 0.  0.
        5    1    3    3  501    0 -0.58396552003E+02 -0.77897883721E+02  0.42494422057E+02  0.10633016260E+03  0.46999998093E+01 0. -1.
       -5    1    5    5    0  502  0.50382251858E+02 -0.30136711588E+02  0.65033953436E+02  0.87738804331E+02  0.46999998093E+01 0.  1.
       13    1    6    6    0    0  0.54116832365E+02  0.56245914800E+02  0.31449307955E+02  0.84150421555E+02  0.00000000000E+00 0. -1.
      -13    1    4    4    0    0 -0.52154801481E+02 -0.15196186259E+02  0.98123430064E+02  0.11215727761E+03  0.00000000000E+00 0.  1.
       14    1    4    4    0    0  0.12164467876E+02  0.36386835039E+02  0.46217301259E+02  0.60066754353E+02  0.00000000000E+00 0. -1.
      -14    1    6    6    0    0 -0.61121986144E+01  0.30598031728E+02 -0.30873792432E+02  0.43895211318E+02  0.00000000000E+00 0.  1.
</event>
<event>
12   0  0.9284400E-04  0.2638762E+03  0.7546771E-02  0.1104921E+00
       21   -1    0    0  501  502  0.00000000000E+00  0.00000000000E+00  0.83283652268E+03  0.83283652268E+03  0.00000000000E+00 0.  1.
       21   -1    0    0  502  503  0.00000000000E+00  0.00000000000E+00 -0.16322382096E+03  0.16322382096E+03  0.00000000000E+00 0. -1.
       -6    2    1    2    0  503 -0.94969828814E+02 -0.17463824328E+03 -0.13608223176E+02  0.26365233236E+03  0.17265452273E+03 0.  0.
      -24    2    3    3    0    0 -0.76591818535E+02 -0.31276684763E+02 -0.35875921459E+01  0.11869443928E+03  0.85035059957E+02 0.  0.
        6    2    1    2  501    0  0.94969828814E+02  0.17463824328E+03  0.68322092490E+03  0.73240801127E+03  0.17353062657E+03 0.  0.
       24    2    5    5    0    0  0.11453262080E+03  0.17751418456E+03  0.50913162997E+03  0.55713637501E+03  0.80974791052E+02 0.  0.
        5    1    5    5  501    0 -0.19562791990E+02 -0.28759412760E+01  0.17408929493E+03  0.17527163626E+03  0.46999998093E+01 0. -1.
       -5    1    3    3    0  503 -0.18378010279E+02 -0.14336155852E+03 -0.10020631030E+02  0.14495789308E+03  0.46999998093E+01 0.  1.
       13    1    4    4    0    0 -0.61008172860E+02 -0.37260173501E+02  0.32806380202E+02  0.78654791761E+02  0.00000000000E+00 0. -1.
      -13    1    6    6    0    0  0.45166783546E+02  0.13010064029E+03  0.36750508029E+03  0.39246171658E+03  0.00000000000E+00 0.  1.
       14    1    6    6    0    0  0.69365837258E+02  0.47413544267E+02  0.14162654967E+03  0.16467465844E+03  0.00000000000E+00 0. -1.
      -14    1    4    4    0    0 -0.15583645675E+02  0.59834887382E+01 -0.36393972348E+02  0.40039647517E+02  0.00000000000E+00 0.  1.
</event>
<event>
12   0  0.9284400E-04  0.1970269E+03  0.7546771E-02  0.1154365E+00
       21   -1    0    0  501  502  0.00000000000E+00  0.00000000000E+00  0.20810373453E+03  0.20810373453E+03  0.00000000000E+00 0. -1.
       21   -1    0    0  502  503  0.00000000000E+00  0.00000000000E+00 -0.30765115883E+03  0.30765115883E+03  0.00000000000E+00 0. -1.
       -6    2    1    2    0  503  0.70159273470E+02 -0.14791497597E+02 -0.21807042194E+03  0.29389505843E+03  0.18351698665E+03 0.  0.
      -24    2    3    3    0    0  0.11672366226E+03 -0.50480223036E+01 -0.20027968352E+03  0.24288743169E+03  0.72335724110E+02 0.  0.
        6    2    1    2  501    0 -0.70159273470E+02  0.14791497597E+02  0.11852299765E+03  0.22185983493E+03  0.17330024042E+03 0.  0.
       24    2    5    5    0    0  0.17758018414E+02 -0.23830726646E+02  0.28083395994E+02  0.89865373063E+02  0.80024105085E+02 0.  0.
        5    1    5    5  501    0 -0.87917291883E+02  0.38622224242E+02  0.90439601656E+02  0.13199446187E+03  0.46999998093E+01 0. -1.
       -5    1    3    3    0  503 -0.46564388788E+02 -0.97434752930E+01 -0.17790738426E+02  0.51007626743E+02  0.46999998093E+01 0.  1.
       13    1    4    4    0    0  0.53287851905E+02 -0.14862339113E+02 -0.15432966804E+03  0.16394551145E+03  0.00000000000E+00 0. -1.
      -13    1    6    6    0    0 -0.15631644508E+01 -0.33350102954E+02 -0.18767860824E+02  0.38300201697E+02  0.00000000000E+00 0.  1.
       14    1    6    6    0    0  0.19321182865E+02  0.95193763081E+01  0.46851256818E+02  0.51565171366E+02  0.00000000000E+00 0. -1.
      -14    1    4    4    0    0  0.63435810353E+02  0.98143168097E+01 -0.45950015470E+02  0.78941920241E+02  0.00000000000E+00 0.  1.
</event>
<event>
12   0  0.9284400E-04  0.1943007E+03  0.7546771E-02  0.1155158E+00
       21   -1    0    0  503  502  0.00000000000E+00  0.00000000000E+00  0.15705064520E+03  0.15705064520E+03  0.00000000000E+00 0. -1.
       21   -1    0    0  501  503  0.00000000000E+00  0.00000000000E+00 -0.24958787642E+03  0.24958787642E+03  0.00000000000E+00 0. -1.
        6    2    1    2  501    0 -0.82643240783E+02 -0.19193756086E+02 -0.90785568387E+02  0.21232994930E+03  0.17217340800E+03 0.  0.
       24    2    3    3    0    0 -0.92300635679E+00 -0.37359838721E+02 -0.32374669066E+01  0.91107165372E+02  0.83026651746E+02 0.  0.
       -6    2    1    2    0  502  0.82643240783E+02  0.19193756086E+02 -0.17516628353E+01  0.19430857231E+03  0.17479830500E+03 0.  0.
      -24    2    5    5    0    0  0.50041604772E+02  0.18488150439E+02 -0.62607489068E+02  0.12510679391E+03  0.94265785305E+02 0.  0.
        5    1    3    3  501    0 -0.81720234426E+02  0.18166082634E+02 -0.87548101480E+02  0.12122278393E+03  0.46999998093E+01 0. -1.
       -5    1    5    5    0  502  0.32601636010E+02  0.70560564705E+00  0.60855826232E+02  0.69201778406E+02  0.46999998093E+01 0.  1.
       13    1    6    6    0    0 -0.91270811742E+01  0.36989783024E+02 -0.16058901047E+01  0.38133011183E+02  0.00000000000E+00 0. -1.
      -13    1    4    4    0    0  0.13583369312E+02  0.14474594008E+01 -0.35860884575E+02  0.38374550200E+02  0.00000000000E+00 0.  1.
       14    1    4    4    0    0 -0.14506375669E+02 -0.38807298122E+02  0.32623417668E+02  0.52732615172E+02  0.00000000000E+00 0. -1.
      -14    1    6    6    0    0  0.59168685947E+02 -0.18501632584E+02 -0.61001598963E+02  0.86973782722E+02  0.00000000000E+00 0.  1.
</event>
<event>
12   0  0.9284400E-04  0.2264436E+03  0.7546771E-02  0.1129967E+00
       21   -1    0    0  503  502  0.00000000000E+00  0.00000000000E+00  0.12163746486E+04  0.12163746486E+04  0.00000000000E+00 0. -1.
       21   -1    0    0  501  503  0.00000000000E+00  0.00000000000E+00 -0.56651792655E+02  0.56651792655E+02  0.00000000000E+00 0.  1.
        6    2    1    2  501    0  0.51798295420E+02 -0.12761664252E+03  0.25311062979E+03  0.33961994802E+03  0.17974328172E+03 0.  0.
       24    2    3    3    0    0 -0.23150452950E+02 -0.11338068420E+03  0.20673264435E+03  0.25021645299E+03  0.80490770200E+02 0.  0.
       -6    2    1    2    0  502 -0.51798295420E+02  0.12761664252E+03  0.90661222612E+03  0.93340649320E+03  0.17416337772E+03 0.  0.
      -24    2    5    5    0    0  0.19596701622E+02  0.42343720791E+02  0.58867674418E+03  0.59654780256E+03  0.84569203597E+02 0.  0.
        5    1    3    3  501    0  0.74948748370E+02 -0.14235958321E+02  0.46377985443E+02  0.89403495030E+02  0.46999998093E+01 0. -1.
       -5    1    5    5    0  502 -0.71394997042E+02  0.85272921733E+02  0.31793548193E+03  0.33685869063E+03  0.46999998093E+01 0.  1.
       13    1    6    6    0    0  0.28036399335E+02  0.58244161265E+02  0.28075507015E+03  0.28810038428E+03  0.00000000000E+00 0. -1.
      -13    1    4    4    0    0 -0.10950934884E+02 -0.12411328237E+03  0.17949790580E+03  0.21850292451E+03  0.00000000000E+00 0.  1.
       14    1    4    4    0    0 -0.12199518067E+02  0.10732598171E+02  0.27234738553E+02  0.31713528479E+02  0.00000000000E+00 0. -1.
      -14    1    6    6    0    0 -0.84396977128E+01 -0.15900440474E+02  0.30792167403E+03  0.30844741828E+03  0.00000000000E+00 0.  1.
</event>
<event>
12   0  0.9284400E-04  0.2030932E+03  0.7546771E-02  0.1148837E+00
       21   -1    0    0  503  502  0.00000000000E+00  0.00000000000E+00  0.51256438827E+03  0.51256438827E+03  0.00000000000E+00 0.  1.
       21   -1    0    0  501  503  0.00000000000E+00  0.00000000000E+00 -0.81687277421E+02  0.81687277421E+02  0.00000000000E+00 0.  1.
        6    2    1    2  501    0 -0.90641331114E+02  0.11878740612E+02  0.14288518896E+03  0.24185102615E+03  0.17239137519E+03 0.  0.
       24    2    3    3    0    0  0.20741865019E+02  0.42571525907E+01  0.29215818136E+02  0.82454913128E+02  0.74141084136E+02 0.  0.
       -6    2    1    2    0  502  0.90641331114E+02 -0.11878740612E+02  0.28799192189E+03  0.35240063954E+03  0.18135575064E+03 0.  0.
      -24    2    5    5    0    0 -0.54014814028E+01  0.44544267596E+02  0.11324152991E+03  0.14511444321E+03  0.78874519059E+02 0.  0.
        5    1    3    3  501    0 -0.11138319613E+03  0.76215880216E+01  0.11366937082E+03  0.15939611302E+03  0.46999998093E+01 0. -1.
       -5    1    5    5    0  502  0.96042812517E+02 -0.56423008208E+02  0.17475039199E+03  0.20728619633E+03  0.46999998093E+01 0.  1.
       13    1    6    6    0    0  0.36025243684E+02  0.27363169376E+02  0.48145622925E+02  0.66064833517E+02  0.00000000000E+00 0. -1.
      -13    1    4    4    0    0  0.16716953650E+02  0.37842171662E+02  0.25077557676E+02  0.48377374819E+02  0.00000000000E+00 0.  1.
       14    1    4    4    0    0  0.40249113696E+01 -0.33585019071E+02  0.41382604608E+01  0.34077538309E+02  0.00000000000E+00 0. -1.
      -14    1    6    6    0    0 -0.41426725087E+02  0.17181098220E+02  0.65095906980E+02  0.79049609696E+02  0.00000000000E+00 0.  1.
</event>
<event>
12   0  0.9284400E-04  0.3859713E+03  0.7546771E-02  0.1048846E+00
       21   -1    0    0  501  502  0.00000000000E+00  0.00000000000E+00  0.60731248489E+02  0.60731248489E+02  0.00000000000E+00 0.  1.
       21   -1    0    0  502  503  0.00000000000E+00  0.00000000000E+00 -0.26142011590E+04  0.26142011590E+04  0.00000000000E+00 0. -1.
        6    2    1    2  501    0  0.19901504903E+03  0.28073071055E+03 -0.93599612230E+03  0.10120447705E+04  0.17242144571E+03 0.  0.
       24    2    3    3    0    0  0.12267047714E+03  0.24053933814E+03 -0.56615206030E+03  0.63224145262E+03  0.79333976821E+02 0.  0.
       -6    2    1    2    0  503 -0.19901504903E+03 -0.28073071055E+03 -0.16174737882E+04  0.16628876370E+04  0.17480593847E+03 0.  0.
      -24    2    5    5    0    0 -0.19751574651E+03 -0.29489081483E+03 -0.14581038814E+04  0.15028138613E+04  0.80059415684E+02 0.  0.
        5    1    3    3  501    0  0.76344571895E+02  0.40191372411E+02 -0.36984406200E+03  0.37980331788E+03  0.46999998093E+01 0. -1.
       -5    1    5    5    0  503 -0.14993025202E+01  0.14160104284E+02 -0.15936990683E+03  0.16007377569E+03  0.46999998093E+01 0.  1.
       13    1    6    6    0    0 -0.12611416945E+03 -0.13815896941E+03 -0.87678103549E+03  0.89651417655E+03  0.00000000000E+00 0. -1.
      -13    1    4    4    0    0  0.67807277860E+02  0.53930626912E+02 -0.18773544949E+03  0.20676300067E+03  0.00000000000E+00 0.  1.
       14    1    4    4    0    0  0.54863199280E+02  0.18660871122E+03 -0.37841661080E+03  0.42547845195E+03  0.00000000000E+00 0. -1.
      -14    1    6    6    0    0 -0.71401577062E+02 -0.15673184542E+03 -0.58132284588E+03  0.60629968474E+03  0.00000000000E+00 0.  1.
</event>
<event>
12   0  0.9284400E-04  0.1879999E+03  0.7546771E-02  0.1160278E+00
        4   -1    0    0  502    0  0.00000000000E+00  0.00000000000E+00  0.20394022124E+03  0.20394022124E+03  0.00000000000E+00 0. -1.
       -4   -1    0    0    0  501  0.00000000000E+00  0.00000000000E+00 -0.27272596363E+03  0.27272596363E+03  0.00000000000E+00 0.  1.
        6    2    1    2  502    0 -0.71453094771E+02  0.53688616192E+01  0.10947815367E+03  0.21776237988E+03  0.17407072853E+03 0.  0.
       24    2    3    3    0    0 -0.63708974449E+02  0.17971308250E+02 -0.15135942060E+01  0.10569074584E+03  0.82379860668E+02 0.  0.
       -6    2    1    2    0  501  0.71453094771E+02 -0.53688616192E+01 -0.17826389606E+03  0.25890380498E+03  0.17354767117E+03 0.  0.
      -24    2    5    5    0    0  0.67953085365E+01 -0.61371751942E+02 -0.78965912848E+02  0.12775834180E+03  0.79208019501E+02 0.  0.
        5    1    3    3  502    0 -0.77441203213E+01 -0.12602446631E+02  0.11099174788E+03  0.11207163404E+03  0.46999998093E+01 0. -1.
       -5    1    5    5    0  501  0.64657786234E+02  0.56002890322E+02 -0.99297983212E+02  0.13114546318E+03  0.46999998093E+01 0.  1.
       13    1    6    6    0    0 -0.14744137034E+02  0.10446018855E+02  0.10538042195E+01  0.18100259394E+02  0.00000000000E+00 0. -1.
      -13    1    4    4    0    0  0.15181083761E+02  0.18151265604E+02 -0.11251558693E+02  0.26201742694E+02  0.00000000000E+00 0.  1.
       14    1    4    4    0    0 -0.78890058211E+02 -0.17995735392E+00  0.97379644870E+01  0.79489003148E+02  0.00000000000E+00 0. -1.
      -14    1    6    6    0    0  0.21539445570E+02 -0.71817770797E+02 -0.80019717067E+02  0.10965808241E+03  0.00000000000E+00 0.  1.
</event>
<event>
12   0  0.9284400E-04  0.2607343E+03  0.7546771E-02  0.1106864E+00
       21   -1    0    0  503  502  0.00000000000E+00  0.00000000000E+00  0.30304748084E+03  0.30304748084E+03  0.00000000000E+00 0. -1.
       21   -1    0    0  501  503  0.00000000000E+00  0.00000000000E+00 -0.39780006566E+03  0.39780006566E+03  0.00000000000E+00 0.  1.
        6    2    1    2  501    0  0.16666149080E+03  0.99353102039E+02 -0.27945131891E+03  0.38219813837E+03  0.17417027856E+03 0.  0.
       24    2    3    3    0    0  0.77427068437E+02  0.12464478576E+03 -0.16099853234E+03  0.23168035190E+03  0.78892233439E+02 0.  0.
       -6    2    1    2    0  502 -0.16666149080E+03 -0.99353102039E+02  0.18469873409E+03  0.31864940812E+03  0.17255935652E+03 0.  0.
      -24    2    5    5    0    0 -0.14982959074E+03 -0.13615802414E+02  0.12281026999E+03  0.21147446052E+03  0.83694615728E+02 0.  0.
        5    1    3    3  501    0  0.89234422367E+02 -0.25291683719E+02 -0.11845278657E+03  0.15051778647E+03  0.46999998093E+01 0. -1.
       -5    1    5    5    0  502 -0.16831900068E+02 -0.85737299625E+02  0.61888464104E+02  0.10717494761E+03  0.46999998093E+01 0.  1.
       13    1    6    6    0    0 -0.61580050686E+02 -0.15335388805E+02  0.41650050771E+01  0.63597358904E+02  0.00000000000E+00 0. -1.
      -13    1    4    4    0    0  0.61114380232E+02  0.43097817191E+02 -0.39856931561E+02  0.84740570634E+02  0.00000000000E+00 0.  1.
       14    1    4    4    0    0  0.16312688205E+02  0.81546968567E+02 -0.12114160078E+03  0.14693978127E+03  0.00000000000E+00 0. -1.
      -14    1    6    6    0    0 -0.88249540050E+02  0.17195863904E+01  0.11864526491E+03  0.14787710161E+03  0.00000000000E+00 0.  1.
</event>
<event>
12   0  0.9284400E-04  0.2917408E+03  0.7546771E-02  0.1089473E+00
       21   -1    0    0  501  502  0.00000000000E+00  0.00000000000E+00  0.90872125260E+03  0.90872125260E+03  0.00000000000E+00 0. -1.
       21   -1    0    0  502  503  0.00000000000E+00  0.00000000000E+00 -0.17646034896E+03  0.17646034896E+03  0.00000000000E+00 0.  1.
       -6    2    1    2    0  503  0.11538649278E+03  0.20631993694E+03 -0.57804705498E+01  0.29157101050E+03  0.17058218321E+03 0.  0.
      -24    2    3    3    0    0  0.31561439345E+01  0.10142417608E+03 -0.39106641398E+02  0.13430850540E+03  0.78820178153E+02 0.  0.
        6    2    1    2  501    0 -0.11538649278E+03 -0.20631993694E+03  0.73804137420E+03  0.79361059106E+03  0.17097000065E+03 0.  0.
       24    2    5    5    0    0 -0.10200444591E+03 -0.22074890535E+03  0.72226255174E+03  0.76795254078E+03  0.94619897779E+02 0.  0.
        5    1    5    5  501    0 -0.13382046862E+02  0.14428968409E+02  0.15778822460E+02  0.25658050277E+02  0.46999998093E+01 0. -1.
       -5    1    3    3    0  503  0.11223034884E+03  0.10489576086E+03  0.33326170848E+02  0.15726250510E+03  0.46999998093E+01 0.  1.
       13    1    4    4    0    0 -0.76804263370E+01  0.21881085165E+02 -0.48228456343E+02  0.53514062058E+02  0.00000000000E+00 0. -1.
      -13    1    6    6    0    0  0.52752012788E+00 -0.29888300220E+02  0.29095754817E+02  0.41715125745E+02  0.00000000000E+00 0.  1.
       14    1    6    6    0    0 -0.10253196604E+03 -0.19086060513E+03  0.69316679692E+03  0.72623741504E+03  0.00000000000E+00 0. -1.
      -14    1    4    4    0    0  0.10836570271E+02  0.79543090912E+02  0.91218149453E+01  0.80794443342E+02  0.00000000000E+00 0.  1.
</event>
<event>
12   0  0.9284400E-04  0.2091204E+03  0.7546771E-02  0.1142923E+00
       21   -1    0    0  501  502  0.00000000000E+00  0.00000000000E+00  0.11635824528E+03  0.11635824528E+03  0.00000000000E+00 0.  1.
       21   -1    0    0  502  503  0.00000000000E+00  0.00000000000E+00 -0.37246628103E+03  0.37246628103E+03  0.00000000000E+00 0. -1.
        6    2    1    2  501    0 -0.90100755466E+02  0.70370887910E+02 -0.14710271522E+03  0.25299937238E+03  0.17117028246E+03 0.  0.
       24    2    3    3    0    0  0.18316008886E+02  0.14734071916E+02 -0.53871886888E+02  0.99494559957E+02  0.80277133777E+02 0.  0.
       -6    2    1    2    0  503  0.90100755466E+02 -0.70370887910E+02 -0.10900532053E+03  0.23582515393E+03  0.17510321335E+03 0.  0.
      -24    2    5    5    0    0  0.80581835704E+02 -0.40117413160E+02 -0.14439657795E+03  0.18807042989E+03  0.80107900932E+02 0.  0.
        5    1    3    3  501    0 -0.10841676435E+03  0.55636815993E+02 -0.93230828330E+02  0.15350481242E+03  0.46999998093E+01 0. -1.
       -5    1    5    5    0  503  0.95189197620E+01 -0.30253474750E+02  0.35391257425E+02  0.47754724041E+02  0.46999998093E+01 0.  1.
       13    1    6    6    0    0  0.95476429942E+02 -0.43969363245E+02 -0.12611039089E+03  0.16417333605E+03  0.00000000000E+00 0. -1.
      -13    1    4    4    0    0 -0.19964053715E+02 -0.82447399452E+01  0.81397180156E+01  0.23082334953E+02  0.00000000000E+00 0.  1.
       14    1    4    4    0    0  0.38280062601E+02  0.22978811862E+02 -0.62011604904E+02  0.76412225004E+02  0.00000000000E+00 0. -1.
      -14    1    6    6    0    0 -0.14894594238E+02  0.38519500856E+01 -0.18286187067E+02  0.23897093848E+02  0.00000000000E+00 0.  1.
</event>
<event>
12   0  0.9284400E-04  0.2467555E+03  0.7546771E-02  0.1115634E+00
       21   -1    0    0  503  502  0.00000000000E+00  0.00000000000E+00  0.10727878231E+04  0.10727878231E+04  0.00000000000E+00 0.  1.
       21   -1    0    0  501  503  0.00000000000E+00  0.00000000000E+00 -0.71069973955E+02  0.71069973955E+02  0.00000000000E+00 0.  1.
        6    2    1    2  501    0  0.58698728064E+02  0.16478595146E+03  0.24218686364E+03  0.34574958272E+03  0.17403547499E+03 0.  0.
       24    2    3    3    0    0  0.87328827470E+02  0.16505700959E+03  0.24270790660E+03  0.31673032104E+03  0.80875384506E+02 0.  0.
       -6    2    1    2    0  502 -0.58698728064E+02 -0.16478595146E+03  0.75953098549E+03  0.79810821433E+03  0.17172493522E+03 0.  0.
      -24    2    5    5    0    0 -0.92680111466E+02 -0.10333935138E+03  0.38594456012E+03  0.41795123846E+03  0.80382893942E+02 0.  0.
        5    1    3    3  501    0 -0.28630099406E+02 -0.27105812904E+00 -0.52104295549E+00  0.29019261681E+02  0.46999998093E+01 0. -1.
       -5    1    5    5    0  502  0.33981383403E+02 -0.61446600077E+02  0.37358642537E+03  0.38015697587E+03  0.46999998093E+01 0.  1.
       13    1    6    6    0    0 -0.10077199333E+02 -0.34082559598E+02  0.31546509675E+02  0.47522132610E+02  0.00000000000E+00 0. -1.
      -13    1    4    4    0    0  0.24527890659E+02  0.11091665612E+03  0.98358730513E+02  0.15026164478E+03  0.00000000000E+00 0.  1.
       14    1    4    4    0    0  0.62800936811E+02  0.54140353469E+02  0.14434917609E+03  0.16646867626E+03  0.00000000000E+00 0. -1.
      -14    1    6    6    0    0 -0.82602912134E+02 -0.69256791782E+02  0.35439805045E+03  0.37042910585E+03  0.00000000000E+00 0.  1.
</event>
<event>
12   0  0.9284400E-04  0.2206224E+03  0.7546771E-02  0.1136099E+00
       21   -1    0    0  501  502  0.00000000000E+00  0.00000000000E+00  0.26500163725E+03  0.26500163725E+03  0.00000000000E+00 0. -1.
       21   -1    0    0  502  503  0.00000000000E+00  0.00000000000E+00 -0.47216876216E+03  0.47216876216E+03  0.00000000000E+00 0.  1.
       -6    2    1    2    0  503 -0.95426551178E+02  0.65850321274E+02 -0.39851360644E+03  0.45550780334E+03  0.18770128638E+03 0.  0.
      -24    2    3    3    0    0  0.17306786476E+02  0.34865285757E+02 -0.99493872539E+02  0.13441004704E+03  0.81559285572E+02 0.  0.
        6    2    1    2  501    0  0.95426551178E+02 -0.65850321274E+02  0.19134648152E+03  0.28166259607E+03  0.17110771623E+03 0.  0.
       24    2    5    5    0    0  0.20355894362E+02 -0.25906466761E+02  0.14542805849E+02  0.85415953404E+02  0.77452465672E+02 0.  0.
        5    1    5    5  501    0  0.75070656816E+02 -0.39943854513E+02  0.17680367567E+03  0.19624664267E+03  0.46999998093E+01 0. -1.
       -5    1    3    3    0  503 -0.11273333765E+03  0.30985035517E+02 -0.29901973390E+03  0.32109775630E+03  0.46999998093E+01 0.  1.
       13    1    4    4    0    0  0.24002994428E+02  0.56986488678E+02 -0.49063381733E+02  0.78935537374E+02  0.00000000000E+00 0. -1.
      -13    1    6    6    0    0 -0.91158887173E+01  0.24014464032E+02  0.88385416041E+01  0.27164567501E+02  0.00000000000E+00 0.  1.
       14    1    6    6    0    0  0.29471783079E+02 -0.49920930792E+02  0.57042642446E+01  0.58251385903E+02  0.00000000000E+00 0. -1.
      -14    1    4    4    0    0 -0.66962079511E+01 -0.22121202921E+02 -0.50430490806E+02  0.55474509664E+02  0.00000000000E+00 0.  1.
</event>
<event>
12   0  0.9284400E-04  0.1746701E+03  0.7546771E-02  0.1173160E+00
       21   -1    0    0  503  502  0.00000000000E+00  0.00000000000E+00  0.53259061487E+03  0.53259061487E+03  0.00000000000E+00 0. -1.
       21   -1    0    0  501  503  0.00000000000E+00  0.00000000000E+00 -0.58570216326E+02  0.58570216326E+02  0.00000000000E+00 0. -1.
        6    2    1    2  501    0  0.81361578398E+01  0.23434285125E+02  0.19088185381E+03  0.25847917134E+03  0.17251155649E+03 0.  0.
       24    2    3    3    0    0  0.64604269827E+02  0.18690442237E+02  0.78913986863E+02  0.13290033179E+03  0.83138658616E+02 0.  0.
       -6    2    1    2    0  502 -0.81361578398E+01 -0.23434285125E+02  0.28313854474E+03  0.33268165985E+03  0.17289964865E+03 0.  0.
      -24    2    5    5    0    0 -0.66277595593E+02 -0.36023546660E+02  0.14360649906E+03  0.18092462358E+03  0.80127880628E+02 0.  0.
        5    1    3    3  501    0 -0.56468111987E+02  0.47438428880E+01  0.11196786695E+03  0.12557883955E+03  0.46999998093E+01 0. -1.
       -5    1    5    5    0  502  0.58141437753E+02  0.12589261535E+02  0.13953204568E+03  0.15175703628E+03  0.46999998093E+01 0.  1.
       13    1    6    6    0    0 -0.11163169463E+02  0.20083063549E+02  0.83176834491E+01  0.24436236452E+02  0.00000000000E+00 0. -1.
      -13    1    4    4    0    0  0.44844477868E+02  0.35215984686E+02  0.88615184218E+02  0.10537477709E+03  0.00000000000E+00 0.  1.
       14    1    4    4    0    0  0.19759791959E+02 -0.16525542448E+02 -0.97011973549E+01  0.27525554701E+02  0.00000000000E+00 0. -1.
      -14    1    6    6    0    0 -0.55114426130E+02 -0.56106610209E+02  0.13528881561E+03  0.15648838713E+03  0.00000000000E+00 0.  1.
</event>
<event>
12   0  0.9284400E-04  0.2194553E+03  0.7546771E-02  0.1134598E+00
       21   -1    0    0  501  502  0.00000000000E+00  0.00000000000E+00  0.33255153481E+03  0.33255153481E+03  0.00000000000E+00 0. -1.
       21   -1    0    0  502  503  0.00000000000E+00  0.00000000000E+00 -0.14875165995E+03  0.14875165995E+03  0.00000000000E+00 0. -1.
       -6    2    1    2    0  503 -0.45361537183E+02 -0.12520168048E+03  0.48061138993E+02  0.22465644445E+03  0.17443484485E+03 0.  0.
      -24    2    3    3    0    0 -0.73598941209E+02 -0.14689460956E+03  0.34311792339E+02  0.18619778236E+03  0.80606976104E+02 0.  0.
        6    2    1    2  501    0  0.45361537183E+02  0.12520168048E+03  0.13573873587E+03  0.25664675031E+03  0.17236420793E+03 0.  0.
       24    2    5    5    0    0  0.56106412110E+02  0.14818259062E+03  0.76975979713E+02  0.19246944842E+03  0.77544680544E+02 0.  0.
        5    1    5    5  501    0 -0.10744874927E+02 -0.22980910136E+02  0.58762756154E+02  0.64177301883E+02  0.46999998093E+01 0. -1.
       -5    1    3    3    0  503  0.28237404026E+02  0.21692929076E+02  0.13749346654E+02  0.38458662089E+02  0.46999998093E+01 0.  1.
       13    1    4    4    0    0 -0.23469807892E+02 -0.55312381175E+02 -0.26172892436E+02  0.65538627482E+02  0.00000000000E+00 0. -1.
      -13    1    6    6    0    0 -0.12529124007E+02  0.26528178636E+02  0.36923461403E+02  0.47159995887E+02  0.00000000000E+00 0.  1.
       14    1    6    6    0    0  0.68635536117E+02  0.12165441198E+03  0.40052518310E+02  0.14530945254E+03  0.00000000000E+00 0. -1.
      -14    1    4    4    0    0 -0.50129133317E+02 -0.91582228384E+02  0.60484684775E+02  0.12065915488E+03  0.00000000000E+00 0.  1.
</event>
<event>
12   0  0.9284400E-04  0.1990683E+03  0.7546771E-02  0.1150666E+00
       21   -1    0    0  503  502  0.00000000000E+00  0.00000000000E+00  0.35557740181E+03  0.35557740181E+03  0.00000000000E+00 0. -1.
       21   -1    0    0  501  503  0.00000000000E+00  0.00000000000E+00 -0.18806855671E+03  0.18806855671E+03  0.00000000000E+00 0. -1.
        6    2    1    2  501    0 -0.26681405311E+02 -0.93754891906E+02 -0.90239160794E+02  0.21797403296E+03  0.17282272929E+03 0.  0.
       24    2    3    3    0    0 -0.81826770804E+01 -0.86976310808E+02 -0.12823706393E+03  0.17491497179E+03  0.80738268168E+02 0.  0.
       -6    2    1    2    0  502  0.26681405311E+02  0.93754891906E+02  0.25774800589E+03  0.32567192556E+03  0.17356926978E+03 0.  0.
      -24    2    5    5    0    0 -0.21082380065E+02  0.68397548082E+02  0.24750145288E+03  0.27043194071E+03  0.82181348529E+02 0.  0.
        5    1    3    3  501    0 -0.18498728230E+02 -0.67785810978E+01  0.37997903133E+02  0.43059061166E+02  0.46999998093E+01 0. -1.
       -5    1    5    5    0  502  0.47763785376E+02  0.25357343824E+02  0.10246553007E+02  0.55239984848E+02  0.46999998093E+01 0.  1.
       13    1    6    6    0    0  0.14086614768E+02  0.52302095904E+02  0.20882172786E+03  0.21573237119E+03  0.00000000000E+00 0. -1.
      -13    1    4    4    0    0 -0.25899366149E+02 -0.45522500941E+01 -0.63152455387E+02  0.68408572337E+02  0.00000000000E+00 0.  1.
       14    1    4    4    0    0  0.17716689069E+02 -0.82424060714E+02 -0.65084608540E+02  0.10650639946E+03  0.00000000000E+00 0. -1.
      -14    1    6    6    0    0 -0.35168994833E+02  0.16095452178E+02  0.38679725019E+02  0.54699569523E+02  0.00000000000E+00 0.  1.
</event>
<event>
12   0  0.9284400E-04  0.1813478E+03  0.7546771E-02  0.1167263E+00
       21   -1    0    0  501  502  0.00000000000E+00  0.00000000000E+00  0.29465736074E+03  0.29465736074E+03  0.00000000000E+00 0.  1.
       21   -1    0    0  502  503  0.00000000000E+00  0.00000000000E+00 -0.11090156482E+03  0.11090156482E+03  0.00000000000E+00 0.  1.
       -6    2    1    2    0  503 -0.36351924224E+02 -0.34981523335E+02  0.11228441583E+03  0.21063541697E+03  0.17092196897E+03 0.  0.
      -24    2    3    3    0    0  0.41944663763E+02 -0.13108729886E+02  0.33826834174E+02  0.97558200432E+02  0.80263030991E+02 0.  0.
        6    2    1    2  501    0  0.36351924224E+02  0.34981523335E+02  0.71471380093E+02  0.19492350858E+03  0.17418911176E+03 0.  0.
       24    2    5    5    0    0 -0.13065941172E+02 -0.38682871121E+02  0.35268022591E+02  0.98999885197E+02  0.83006388397E+02 0.  0.
        5    1    5    5  501    0  0.49417865395E+02  0.73664394456E+02  0.36203357503E+02  0.95923623386E+02  0.46999998093E+01 0. -1.
       -5    1    3    3    0  503 -0.78296587987E+02 -0.21872793449E+02  0.78457581654E+02  0.11307721654E+03  0.46999998093E+01 0.  1.
       13    1    4    4    0    0  0.49538986692E+02 -0.78893468151E+01  0.55015948140E+02  0.74452048631E+02  0.00000000000E+00 0. -1.
      -13    1    6    6    0    0 -0.96532888973E+01  0.25214511539E+02  0.18881881146E+02  0.32946669244E+02  0.00000000000E+00 0.  1.
       14    1    6    6    0    0 -0.34126522744E+01 -0.63897382660E+02  0.16386141444E+02  0.66053215953E+02  0.00000000000E+00 0. -1.
      -14    1    4    4    0    0 -0.75943229284E+01 -0.52193830707E+01 -0.21189113966E+02  0.23106151801E+02  0.00000000000E+00 0.  1.
</event>
<event>
12   0  0.9284400E-04  0.2825280E+03  0.7546771E-02  0.1094384E+00
       21   -1    0    0  503  502  0.00000000000E+00  0.00000000000E+00  0.96485711914E+02  0.96485711914E+02  0.00000000000E+00 0.  1.
       21   -1    0    0  501  503  0.00000000000E+00  0.00000000000E+00 -0.84139310958E+03  0.84139310958E+03  0.00000000000E+00 0. -1.
        6    2    1    2  501    0 -0.21988698358E+03  0.41403285733E+02 -0.30834343024E+03  0.41786906210E+03  0.17168099626E+03 0.  0.
       24    2    3    3    0    0 -0.68307838290E+02  0.56923557498E+02 -0.19268445753E+03  0.22651545203E+03  0.79219301090E+02 0.  0.
       -6    2    1    2    0  502  0.21988698358E+03 -0.41403285733E+02 -0.43656396743E+03  0.52000975939E+03  0.17250372339E+03 0.  0.
      -24    2    5    5    0    0  0.18187038366E+03 -0.53927832930E+02 -0.43282197769E+03  0.47953484571E+03  0.81447874490E+02 0.  0.
        5    1    3    3  501    0 -0.15157914529E+03 -0.15520271765E+02 -0.11565897271E+03  0.19135361007E+03  0.46999998093E+01 0. -1.
       -5    1    5    5    0  502  0.38016599920E+02  0.12524547197E+02 -0.37419897371E+01  0.40474913679E+02  0.46999998093E+01 0.  1.
       13    1    6    6    0    0  0.57452467254E+02 -0.56202503475E+02 -0.19998945879E+03  0.21553489513E+03  0.00000000000E+00 0. -1.
      -13    1    4    4    0    0 -0.40460436295E+02  0.55042195543E+02 -0.59981715224E+02  0.90909275416E+02  0.00000000000E+00 0.  1.
       14    1    4    4    0    0 -0.27847401995E+02  0.18813619546E+01 -0.13270274231E+03  0.13560617661E+03  0.00000000000E+00 0. -1.
      -14    1    6    6    0    0  0.12441791641E+03  0.22746705447E+01 -0.23283251890E+03  0.26399995058E+03  0.00000000000E+00 0.  1.
</event>
<event>
12   0  0.9284400E-04  0.1857463E+03  0.7546771E-02  0.1162834E+00
       21   -1    0    0  503  502  0.00000000000E+00  0.00000000000E+00  0.21122088135E+03  0.21122088135E+03  0.00000000000E+00 0. -1.
       21   -1    0    0  501  503  0.00000000000E+00  0.00000000000E+00 -0.24428325469E+03  0.24428325469E+03  0.00000000000E+00 0. -1.
        6    2    1    2  501    0 -0.54936315909E+02  0.29050506498E+02 -0.14913799548E+03  0.23820961442E+03  0.17504213200E+03 0.  0.
       24    2    3    3    0    0 -0.59275196553E+02  0.83742515974E+02 -0.11501639223E+03  0.17342986765E+03  0.79515977021E+02 0.  0.
       -6    2    1    2    0  502  0.54936315909E+02 -0.29050506498E+02  0.11607562214E+03  0.21729452162E+03  0.17286245496E+03 0.  0.
      -24    2    5    5    0    0  0.57299094631E+02  0.45576807211E+02  0.68220067024E+02  0.12848538454E+03  0.80585885208E+02 0.  0.
        5    1    3    3  501    0  0.43388806449E+01 -0.54692009476E+02 -0.34121603246E+02  0.64779746774E+02  0.46999998093E+01 0. -1.
       -5    1    5    5    0  502 -0.23627787221E+01 -0.74627313709E+02  0.47855555121E+02  0.88809137080E+02  0.46999998093E+01 0.  1.
       13    1    6    6    0    0  0.66514362004E+02  0.24858670215E+02  0.76471849787E+02  0.10435543899E+03  0.00000000000E+00 0. -1.
      -13    1    4    4    0    0 -0.19354475272E+02 -0.69671595332E+01  0.13083037763E+01  0.20611857844E+02  0.00000000000E+00 0.  1.
       14    1    4    4    0    0 -0.39920721281E+02  0.90709675508E+02 -0.11632469601E+03  0.15281800980E+03  0.00000000000E+00 0. -1.
      -14    1    6    6    0    0 -0.92152673730E+01  0.20718136996E+02 -0.82517827631E+01  0.24129945547E+02  0.00000000000E+00 0.  1.
</event>
<event>
12   0  0.9284400E-04  0.1801113E+03  0.7546771E-02  0.1167856E+00
       21   -1    0    0  501  502  0.00000000000E+00  0.00000000000E+00  0.26476889936E+02  0.26476889936E+02  0.00000000000E+00 0.  1.
       21   -1    0    0  502  503  0.00000000000E+00  0.00000000000E+00 -0.12256587278E+04  0.12256587278E+04  0.00000000000E+00 0.  1.
       -6    2    1    2    0  503  0.26116792666E+02  0.42533996312E+02 -0.63828898193E+03  0.66303387812E+03  0.17236551680E+03 0.  0.
      -24    2    3    3    0    0  0.68957927864E+02 -0.16297097222E+02 -0.36641210313E+03  0.38154571202E+03  0.79363151693E+02 0.  0.
        6    2    1    2  501    0 -0.26116792666E+02 -0.42533996312E+02 -0.56089285592E+03  0.58910173960E+03  0.17305732021E+03 0.  0.
       24    2    5    5    0    0  0.41324735152E+02 -0.54432967117E+02 -0.41319958645E+03  0.42623573018E+03  0.79197965841E+02 0.  0.
        5    1    5    5  501    0 -0.67441527818E+02  0.11898970805E+02 -0.14769326947E+03  0.16286600942E+03  0.46999998093E+01 0. -1.
       -5    1    3    3    0  503 -0.42841135198E+02  0.58831093534E+02 -0.27187687880E+03  0.28148816610E+03  0.46999998093E+01 0.  1.
       13    1    4    4    0    0  0.42683605133E+02  0.29911451398E+02 -0.20899071626E+03  0.21539197885E+03  0.00000000000E+00 0. -1.
      -13    1    6    6    0    0  0.61540387544E+02 -0.32617592137E+02 -0.22005163898E+03  0.23081128749E+03  0.00000000000E+00 0.  1.
       14    1    6    6    0    0 -0.20215652393E+02 -0.21815374980E+02 -0.19314794747E+03  0.19542444269E+03  0.00000000000E+00 0. -1.
      -14    1    4    4    0    0  0.26274322731E+02 -0.46208548620E+02 -0.15742138688E+03  0.16615373317E+03  0.00000000000E+00 0.  1.
</event>
<event>
12   0  0.9284400E-04  0.1819136E+03  0.7546771E-02  0.1165964E+00
        1   -1    0    0  502    0  0.00000000000E+00  0.00000000000E+00  0.11207159031E+04  0.11207159031E+04  0.00000000000E+00 0. -1.
       -1   -1    0    0    0  501  0.00000000000E+00  0.00000000000E+00 -0.29749400093E+02  0.29749400093E+02  0.00000000000E+00 0.  1.
        6    2    1    2  502    0  0.32603254544E+02  0.46528066967E+02  0.49559986740E+03  0.52790090716E+03  0.17272031144E+03 0.  0.
       24    2    3    3    0    0  0.40581896160E+02  0.89760976325E+02  0.27174460282E+03  0.29972112573E+03  0.79269798017E+02 0.  0.
       -6    2    1    2    0  501 -0.32603254544E+02 -0.46528066967E+02  0.59536663564E+03  0.62256439608E+03  0.17290796165E+03 0.  0.
      -24    2    5    5    0    0  0.36817809105E+02 -0.42395664765E+02  0.45128345233E+03  0.46250686099E+03  0.84278696348E+02 0.  0.
        5    1    3    3  502    0 -0.79786416160E+01 -0.43232909358E+02  0.22385526458E+03  0.22817978143E+03  0.46999998093E+01 0. -1.
       -5    1    5    5    0  501 -0.69421063649E+02 -0.41324022023E+01  0.14408318332E+03  0.16005753509E+03  0.46999998093E+01 0.  1.
       13    1    6    6    0    0 -0.12497177573E+02  0.18185106880E+02  0.13029141307E+03  0.13214662266E+03  0.00000000000E+00 0. -1.
      -13    1    4    4    0    0 -0.25256508128E+01  0.26923200754E+02  0.13029157410E+02  0.30016605299E+02  0.00000000000E+00 0.  1.
       14    1    4    4    0    0  0.43107546973E+02  0.62837775572E+02  0.25871544541E+03  0.26970452043E+03  0.00000000000E+00 0. -1.
      -14    1    6    6    0    0  0.49314986678E+02 -0.60580771645E+02  0.32099203926E+03  0.33036023833E+03  0.00000000000E+00 0.  1.
</event>
<event>
12   0  0.9284400E-04  0.2234954E+03  0.7546771E-02  0.1131377E+00
       21   -1    0    0  501  502  0.00000000000E+00  0.00000000000E+00  0.19509934505E+03  0.19509934505E+03  0.00000000000E+00 0. -1.
       21   -1    0    0  502  503  0.00000000000E+00  0.00000000000E+00 -0.33685078120E+03  0.33685078120E+03  0.00000000000E+00 0. -1.
        6    2    1    2  501    0  0.10387775279E+03  0.96192731840E+02  0.59827452891E+02  0.23097794080E+03  0.17241767842E+03 0.  0.
       24    2    3    3    0    0  0.32657450658E+02  0.10668587444E+03  0.75961914217E+02  0.15705332840E+03  0.80294150842E+02 0.  0.
       -6    2    1    2    0  503 -0.10387775279E+03 -0.96192731840E+02 -0.20157888905E+03  0.30097218545E+03  0.17293518648E+03 0.  0.
      -24    2    5    5    0    0 -0.13455670863E+03 -0.86758993512E+02 -0.12074411990E+03  0.21387141823E+03  0.74358659573E+02 0.  0.
        5    1    3    3  501    0  0.71220302136E+02 -0.10493142604E+02 -0.16134461326E+02  0.73924612401E+02  0.46999998093E+01 0. -1.
       -5    1    5    5    0  503  0.30678955834E+02 -0.94337383280E+01 -0.80834769147E+02  0.87100767224E+02  0.46999998093E+01 0.  1.
       13    1    6    6    0    0 -0.82736357934E+02 -0.44165749067E+02 -0.11222434917E+03  0.14625396699E+03  0.00000000000E+00 0. -1.
      -13    1    4    4    0    0  0.20993698408E+02 -0.53211656558E+01  0.82083472754E+00  0.21673115753E+02  0.00000000000E+00 0.  1.
       14    1    4    4    0    0  0.11663752250E+02  0.11200704010E+03  0.75141079490E+02  0.13538021264E+03  0.00000000000E+00 0. -1.
      -14    1    6    6    0    0 -0.51820350694E+02 -0.42593244445E+02 -0.85197707293E+01  0.67617451236E+02  0.00000000000E+00 0.  1.
</event>
<event>
12   0  0.9284400E-04  0.2177398E+03  0.7546771E-02  0.1135921E+00
       21   -1    0    0  501  502  0.00000000000E+00  0.00000000000E+00  0.82231651033E+03  0.82231651033E+03  0.00000000000E+00 0.  1.
       21   -1    0    0  502  503  0.00000000000E+00  0.00000000000E+00 -0.69466654087E+02  0.69466654087E+02  0.00000000000E+00 0. -1.
       -6    2    1    2    0  503 -0.44232769293E+02 -0.12690038256E+03  0.19017940199E+03  0.28910003495E+03  0.17131952690E+03 0.  0.
      -24    2    3    3    0    0 -0.82809676165E+02 -0.12408275095E+03  0.11729280077E+03  0.20645220723E+03  0.81307694644E+02 0.  0.
        6    2    1    2  501    0  0.44232769293E+02  0.12690038256E+03  0.56267045426E+03  0.60268312947E+03  0.16902268924E+03 0.  0.
       24    2    5    5    0    0  0.85082796882E+02  0.33276890799E+02  0.31413212134E+03  0.33393143014E+03  0.66968474612E+02 0.  0.
        5    1    5    5  501    0 -0.40850027590E+02  0.93623491759E+02  0.24853833292E+03  0.26875169933E+03  0.46999998093E+01 0. -1.
       -5    1    3    3    0  503  0.38576906872E+02 -0.28176316068E+01  0.72886601218E+02  0.82647827721E+02  0.46999998093E+01 0.  1.
       13    1    4    4    0    0 -0.89693276620E+02 -0.87842870985E+02  0.11372036697E+03  0.16939178173E+03  0.00000000000E+00 0. -1.
      -13    1    6    6    0    0  0.27006123613E+02  0.42652347774E+02  0.18955923197E+03  0.19616639852E+03  0.00000000000E+00 0.  1.
       14    1    6    6    0    0  0.58076673269E+02 -0.93754569746E+01  0.12457288936E+03  0.13776503161E+03  0.00000000000E+00 0. -1.
      -14    1    4    4    0    0  0.68836004558E+01 -0.36239879966E+02  0.35724338021E+01  0.37060425503E+02  0.00000000000E+00 0.  1.
</event>
<event>
11   0  0.9284400E-04  0.1725239E+03  0.7546771E-02  0.1175241E+00
        2   -1    0    0  502    0  0.00000000000E+00  0.00000000000E+00  0.36170985053E+03  0.36170985053E+03  0.00000000000E+00 0.  1.
       -2   -1    0    0    0  501  0.00000000000E+00  0.00000000000E+00 -0.11226127887E+03  0.11226127887E+03  0.00000000000E+00 0. -1.
        6    2    1    2  502    0  0.95704505219E+01  0.11272733522E+02  0.24696851848E+03  0.30103600903E+03  0.17149507738E+03 0.  0.
       24    2    3    3    0    0  0.20542319575E+02 -0.20846602452E+02  0.25286624134E+03  0.26626667215E+03  0.78102733363E+02 0.  0.
       -6    2    1    2    0  501 -0.95704505219E+01 -0.11272733522E+02  0.24800531771E+01  0.17293512038E+03  0.17228388535E+03 0.  0.
        5    1    3    3  502    0 -0.10971869053E+02  0.32119335974E+02 -0.58977228620E+01  0.34769336880E+02  0.46999998093E+01 0. -1.
       -5    1    5    5    0  501 -0.69951985030E+02  0.58909692237E+01  0.47226723090E+02  0.84737459839E+02  0.46999998093E+01 0.  1.
       13    1    5    5    0    0  0.39343911260E+02 -0.96046252633E+01 -0.27138561853E+01  0.40590112035E+02  0.00000000000E+00 0. -1.
      -13    1    4    4    0    0  0.39994886701E+02  0.12519089570E+02  0.96612636898E+02  0.10531058909E+03  0.00000000000E+00 0.  1.
       14    1    4    4    0    0 -0.19452567126E+02 -0.33365692022E+02  0.15625360445E+03  0.16095608306E+03  0.00000000000E+00 0. -1.
      -14    1    5    5    0    0  0.21037623248E+02 -0.75590774819E+01 -0.42032813728E+02  0.47607548500E+02  0.00000000000E+00 0.  1.
</event>
<event>
12   0  0.9284400E-04  0.2546635E+03  0.7546771E-02  0.1110684E+00
       21   -1    0    0  501  502  0.00000000000E+00  0.00000000000E+00  0.20959095847E+03  0.20959095847E+03  0.00000000000E+00 0.  1.
       21   -1    0    0  502  503  0.00000000000E+00  0.00000000000E+00 -0.47425784652E+03  0.47425784652E+03  0.00000000000E+00 0. -1.
       -6    2    1    2    0  503  0.18616101016E+03  0.23205784568E+02 -0.33561528891E+03  0.42129695564E+03  0.17221809585E+03 0.  0.
      -24    2    3    3    0    0  0.17421739200E+03  0.68799285031E+02 -0.24169201363E+03  0.31610622916E+03  0.80144103743E+02 0.  0.
        6    2    1    2  501    0 -0.18616101016E+03 -0.23205784568E+02  0.70948400863E+02  0.26255184935E+03  0.16942658549E+03 0.  0.
       24    2    5    5    0    0 -0.17660855045E+03  0.13728410304E+02  0.16321348920E+02  0.19575672199E+03  0.81702254753E+02 0.  0.
        5    1    5    5  501    0 -0.95524597117E+01 -0.36934194872E+02  0.54627051943E+02  0.66795127364E+02  0.46999998093E+01 0. -1.
       -5    1    3    3    0  503  0.11943618157E+02 -0.45593500463E+02 -0.93923275278E+02  0.10519072648E+03  0.46999998093E+01 0.  1.
       13    1    4    4    0    0  0.16143158719E+03  0.72076548236E+02 -0.24534961223E+03  0.30240968630E+03  0.00000000000E+00 0. -1.
      -13    1    6    6    0    0 -0.15321476678E+03  0.41412219006E+02  0.15929281353E+02  0.15951012083E+03  0.00000000000E+00 0.  1.
       14    1    6    6    0    0 -0.23393783668E+02 -0.27683808702E+02  0.39206756692E+00  0.36246601158E+02  0.00000000000E+00 0. -1.
      -14    1    4    4    0    0  0.12785804818E+02 -0.32772632053E+01  0.36575985953E+01  0.13696542865E+02  0.00000000000E+00 0.  1.
</event>
<event>
12   0  0.9284400E-04  0.2399975E+03  0.7546771E-02  0.1119996E+00
       21   -1    0    0  503  502  0.00000000000E+00  0.00000000000E+00  0.11629811522E+03  0.11629811522E+03  0.00000000000E+00 0. -1.
       21   -1    0    0  501  503  0.00000000000E+00  0.00000000000E+00 -0.53230699450E+03  0.53230699450E+03  0.00000000000E+00 0. -1.
        6    2    1    2  501    0 -0.12834589302E+03  0.10515850837E+03 -0.29686769343E+03  0.38174495800E+03  0.17340070767E+03 0.  0.
       24    2    3    3    0    0 -0.14119944444E+02  0.32143413647E+01 -0.67096409977E+02  0.10559805288E+03  0.80245347017E+02 0.  0.
       -6    2    1    2    0  502  0.12834589302E+03 -0.10515850837E+03 -0.11914118585E+03  0.26686015172E+03  0.17172285309E+03 0.  0.
      -24    2    5    5    0    0  0.15208409014E+03 -0.97956885226E+02 -0.67448421488E+02  0.20933105244E+03  0.80901657064E+02 0.  0.
        5    1    3    3  501    0 -0.11422594858E+03  0.10194416700E+03 -0.22977128345E+03  0.27614690513E+03  0.46999998093E+01 0. -1.
       -5    1    5    5    0  502 -0.23738197125E+02 -0.72016231391E+01 -0.51692764360E+02  0.57529099280E+02  0.46999998093E+01 0.  1.
       13    1    6    6    0    0  0.92464216861E+02 -0.12193362833E+02 -0.38877735755E+02  0.10104349477E+03  0.00000000000E+00 0. -1.
      -13    1    4    4    0    0 -0.39040411851E+02 -0.22919891365E+02 -0.34033918814E+02  0.56637291668E+02  0.00000000000E+00 0.  1.
       14    1    4    4    0    0  0.24920467407E+02  0.26134232730E+02 -0.33062491163E+02  0.48960761208E+02  0.00000000000E+00 0. -1.
      -14    1    6    6    0    0  0.59619873283E+02 -0.85763522394E+02 -0.28570685733E+02  0.10828755767E+03  0.00000000000E+00 0.  1.
</event>
<event>
12   0  0.9284400E-04  0.1838129E+03  0.7546771E-02  0.1164772E+00
       21   -1    0    0  503  502  0.00000000000E+00  0.00000000000E+00  0.19522038689E+03  0.19522038689E+03  0.00000000000E+00 0.  1.
       21   -1    0    0  501  503  0.00000000000E+00  0.00000000000E+00 -0.18422009266E+03  0.18422009266E+03  0.00000000000E+00 0. -1.
        6    2    1    2  501    0  0.13835575473E+02  0.52746366533E+02 -0.45929308637E+02  0.18946422014E+03  0.17553799301E+03 0.  0.
       24    2    3    3    0    0 -0.11098289927E+02  0.52026960613E+02  0.36679635588E+02  0.10304348853E+03  0.80265734848E+02 0.  0.
       -6    2    1    2    0  502 -0.13835575473E+02 -0.52746366533E+02  0.56929602863E+02  0.18997625941E+03  0.17284790172E+03 0.  0.
      -24    2    5    5    0    0 -0.16893877681E+01  0.28427608490E+02 -0.75392340800E+01  0.85501070820E+02  0.80265871361E+02 0.  0.
        5    1    3    3  501    0  0.24933865400E+02  0.71940591953E+00 -0.82608944226E+02  0.86420731615E+02  0.46999998093E+01 0. -1.
       -5    1    5    5    0  502 -0.12146187705E+02 -0.81173975023E+02  0.64468836943E+02  0.10447518859E+03  0.46999998093E+01 0.  1.
       13    1    6    6    0    0 -0.84192026981E+01  0.49639415026E+02  0.16269177758E+02  0.52911630509E+02  0.00000000000E+00 0. -1.
      -13    1    4    4    0    0 -0.22758856507E+02  0.49224368570E+01 -0.18370121067E+02  0.29659016878E+02  0.00000000000E+00 0.  1.
       14    1    4    4    0    0  0.11660566580E+02  0.47104523756E+02  0.55049756655E+02  0.73384471648E+02  0.00000000000E+00 0. -1.
      -14    1    6    6    0    0  0.67298149299E+01 -0.21211806536E+02 -0.23808411838E+02  0.32589440311E+02  0.00000000000E+00 0.  1.
</event>
<event>
12   0  0.9284400E-04  0.2437204E+03  0.7546771E-02  0.1117563E+00
       21   -1    0    0  503  502  0.00000000000E+00  0.00000000000E+00  0.87113008556E+03  0.87113008556E+03  0.00000000000E+00 0. -1.
       21   -1    0    0  501  503  0.00000000000E+00  0.00000000000E+00 -0.13407476810E+03  0.13407476810E+03  0.00000000000E+00 0. -1.
        6    2    1    2  501    0  0.71198311883E+02  0.15516948764E+03  0.14649707724E+02  0.24279451899E+03  0.17201103164E+03 0.  0.
       24    2    3    3    0    0  0.30972316033E+02  0.10011495786E+03  0.73126428656E+02  0.15284592878E+03  0.83857702269E+02 0.  0.
       -6    2    1    2    0  502 -0.71198311883E+02 -0.15516948764E+03  0.72240560973E+03  0.76241033467E+03  0.17393356182E+03 0.  0.
      -24    2    5    5    0    0  0.23036007796E+02 -0.43508428709E+02  0.34158171121E+03  0.35449216791E+03  0.81012287052E+02 0.  0.
        5    1    3    3  501    0  0.40225995849E+02  0.55054529781E+02 -0.58476720932E+02  0.89948590210E+02  0.46999998093E+01 0. -1.
       -5    1    5    5    0  502 -0.94234319679E+02 -0.11166105893E+03  0.38082389852E+03  0.40791816676E+03  0.46999998093E+01 0.  1.
       13    1    6    6    0    0 -0.27940392053E+02 -0.78761033925E+01  0.15844887383E+03  0.16108613885E+03  0.00000000000E+00 0. -1.
      -13    1    4    4    0    0 -0.22072516549E+02  0.14419645136E+01  0.13927700578E+02  0.26139167773E+02  0.00000000000E+00 0.  1.
       14    1    4    4    0    0  0.53044832583E+02  0.98672993347E+02  0.59198728078E+02  0.12670676101E+03  0.00000000000E+00 0. -1.
      -14    1    6    6    0    0  0.50976399849E+02 -0.35632325317E+02  0.18313283738E+03  0.19340602906E+03  0.00000000000E+00 0.  1.
</event>
<event>
12   0  0.9284400E-04  0.2190576E+03  0.7546771E-02  0.1134658E+00
       21   -1    0    0  501  502  0.00000000000E+00  0.00000000000E+00  0.10563052151E+04  0.10563052151E+04  0.00000000000E+00 0. -1.
       21   -1    0    0  502  503  0.00000000000E+00  0.00000000000E+00 -0.66707521328E+02  0.66707521328E+02  0.00000000000E+00 0. -1.
       -6    2    1    2    0  503  0.92923633036E+02 -0.96785339512E+02  0.17737177833E+03  0.28186342361E+03  0.17315899717E+03 0.  0.
      -24    2    3    3    0    0  0.12741508295E+03 -0.50239820901E+02  0.15201500526E+03  0.21845048047E+03  0.76507565804E+02 0.  0.
        6    2    1    2  501    0 -0.92923633036E+02  0.96785339512E+02  0.81222591542E+03  0.84114931280E+03  0.17268186128E+03 0.  0.
       24    2    5    5    0    0 -0.92179606549E+02  0.35417864823E+02  0.30236846120E+03  0.32758993537E+03  0.78338843571E+02 0.  0.
        5    1    5    5  501    0 -0.74402648689E+00  0.61367474689E+02  0.50985745422E+03  0.51355937743E+03  0.46999998093E+01 0. -1.
       -5    1    3    3    0  503 -0.34491449910E+02 -0.46545518611E+02  0.25356773068E+02  0.63412943145E+02  0.46999998093E+01 0.  1.
       13    1    4    4    0    0  0.11520823952E+03 -0.26012887033E+02  0.83171057771E+02  0.14445426126E+03  0.00000000000E+00 0. -1.
      -13    1    6    6    0    0 -0.79954454788E+02  0.57310964667E+02  0.21035163258E+03  0.23221772292E+03  0.00000000000E+00 0.  1.
       14    1    6    6    0    0 -0.12225151761E+02 -0.21893099844E+02  0.92016828628E+02  0.95372212447E+02  0.00000000000E+00 0. -1.
      -14    1    4    4    0    0  0.12206843428E+02 -0.24226933868E+02  0.68843947494E+02  0.73996219212E+02  0.00000000000E+00 0.  1.
</event>
<event>
12   0  0.9284400E-04  0.3006853E+03  0.7546771E-02  0.1084912E+00
       21   -1    0    0  503  502  0.00000000000E+00  0.00000000000E+00  0.31819527192E+03  0.31819527192E+03  0.00000000000E+00 0.  1.
       21   -1    0    0  501  503  0.00000000000E+00  0.00000000000E+00 -0.65316884397E+03  0.65316884397E+03  0.00000000000E+00 0. -1.
        6    2    1    2  501    0 -0.24412520621E+03  0.26847445658E+02 -0.53261580813E+03  0.61163000406E+03  0.17347553476E+03 0.  0.
       24    2    3    3    0    0 -0.93683153938E+02  0.42262999026E+01 -0.12205994369E+03  0.17376845614E+03  0.80637779940E+02 0.  0.
       -6    2    1    2    0  502  0.24412520621E+03 -0.26847445658E+02  0.19764223608E+03  0.35973411182E+03  0.17328668754E+03 0.  0.
      -24    2    5    5    0    0  0.20477486018E+03 -0.60248396053E+01  0.80109293718E+02  0.23396403114E+03  0.79703368017E+02 0.  0.
        5    1    3    3  501    0 -0.15044205227E+03  0.22621145756E+02 -0.41055586444E+03  0.43786154793E+03  0.46999998093E+01 0. -1.
       -5    1    5    5    0  502  0.39350346026E+02 -0.20822606053E+02  0.11753294236E+03  0.12577008068E+03  0.46999998093E+01 0.  1.
       13    1    6    6    0    0  0.18907947303E+03 -0.20226195466E+02  0.90256562827E+02  0.21049083885E+03  0.00000000000E+00 0. -1.
      -13    1    4    4    0    0  0.12988109656E+02  0.10561794672E+02 -0.18739756902E+02  0.25128091608E+02  0.00000000000E+00 0.  1.
       14    1    4    4    0    0 -0.10667126359E+03 -0.63354947692E+01 -0.10332018678E+03  0.14864036453E+03  0.00000000000E+00 0. -1.
      -14    1    6    6    0    0  0.15695387146E+02  0.14201355861E+02 -0.10147269109E+02  0.23473192291E+02  0.00000000000E+00 0.  1.
</event>
<event>
12   0  0.9284400E-04  0.1819170E+03  0.7546771E-02  0.1166217E+00
       21   -1    0    0  503  502  0.00000000000E+00  0.00000000000E+00  0.75672150504E+02  0.75672150504E+02  0.00000000000E+00 0. -1.
       21   -1    0    0  501  503  0.00000000000E+00  0.00000000000E+00 -0.44315145738E+03  0.44315145738E+03  0.00000000000E+00 0. -1.
        6    2    1    2  501    0  0.30736736646E+02  0.43786332316E+02 -0.21889897015E+03  0.28394083206E+03  0.17275313919E+03 0.  0.
       24    2    3    3    0    0  0.27166993852E+02  0.34599259696E+02 -0.37006869089E+02  0.10172126178E+03  0.83919916657E+02 0.  0.
       -6    2    1    2    0  502 -0.30736736646E+02 -0.43786332316E+02 -0.14858033672E+03  0.23488277582E+03  0.17387297674E+03 0.  0.
      -24    2    5    5    0    0 -0.18054137235E+02 -0.78933708293E+02 -0.15929982883E+03  0.19572688386E+03  0.79850456635E+02 0.  0.
        5    1    3    3  501    0  0.35697427938E+01  0.91870726201E+01 -0.18189210106E+03  0.18221957028E+03  0.46999998093E+01 0. -1.
       -5    1    5    5    0  502 -0.12682599411E+02  0.35147375977E+02  0.10719492106E+02  0.39155891959E+02  0.46999998093E+01 0.  1.
       13    1    6    6    0    0 -0.18855474306E+02 -0.26022384327E+02 -0.48954499126E+01  0.32506289041E+02  0.00000000000E+00 0. -1.
      -13    1    4    4    0    0  0.22112835844E+02 -0.25890672221E+02 -0.13025031355E+02  0.36454846851E+02  0.00000000000E+00 0.  1.
       14    1    4    4    0    0  0.50541580079E+01  0.60489931917E+02 -0.23981837735E+02  0.65266414929E+02  0.00000000000E+00 0. -1.
      -14    1    6    6    0    0  0.80133707023E+00 -0.52911323966E+02 -0.15440437892E+03  0.16322059482E+03  0.00000000000E+00 0.  1.
</event>
<event>
12   0  0.9284400E-04  0.2392280E+03  0.7546771E-02  0.1120308E+00
        1   -1    0    0  502    0  0.00000000000E+00  0.00000000000E+00  0.23205322501E+03  0.23205322501E+03  0.00000000000E+00 0. -1.
       -1   -1    0    0    0  501  0.00000000000E+00  0.00000000000E+00 -0.38925472565E+03  0.38925472565E+03  0.00000000000E+00 0.  1.
        6    2    1    2  502    0 -0.15695987997E+03  0.48034701238E+02  0.10928061958E+03  0.26371932577E+03  0.17510537549E+03 0.  0.
       24    2    3    3    0    0 -0.15543824732E+03 -0.16191914188E+02  0.73110780624E+02  0.18984293750E+03  0.79195504046E+02 0.  0.
       -6    2    1    2    0  501  0.15695987997E+03 -0.48034701238E+02 -0.26648212021E+03  0.35758862489E+03  0.17295423617E+03 0.  0.
      -24    2    5    5    0    0  0.13180967611E+02 -0.93884893494E+01 -0.12360336470E+03  0.15118529616E+03  0.85541337207E+02 0.  0.
        5    1    3    3  502    0 -0.15216326489E+01  0.64226615426E+02  0.36169838953E+02  0.73876388265E+02  0.46999998093E+01 0. -1.
       -5    1    5    5    0  501  0.14377891236E+03 -0.38646211888E+02 -0.14287875551E+03  0.20640332872E+03  0.46999998093E+01 0.  1.
       13    1    6    6    0    0  0.28910753683E+02  0.12942576946E+02 -0.83755051983E+01  0.32764173481E+02  0.00000000000E+00 0. -1.
      -13    1    4    4    0    0 -0.33745978520E+02 -0.23001444339E+02  0.52041438813E+02  0.66152617950E+02  0.00000000000E+00 0.  1.
       14    1    4    4    0    0 -0.12169226880E+03  0.68095301501E+01  0.21069341810E+02  0.12369031955E+03  0.00000000000E+00 0. -1.
      -14    1    6    6    0    0 -0.15729786073E+02 -0.22331066296E+02 -0.11522785950E+03  0.11842112268E+03  0.00000000000E+00 0.  1.
</event>
<event>
12   0  0.9284400E-04  0.2222411E+03  0.7546771E-02  0.1132304E+00
       21   -1    0    0  503  502  0.00000000000E+00  0.00000000000E+00  0.25198741125E+03  0.25198741125E+03  0.00000000000E+00 0.  1.
       21   -1    0    0  501  503  0.00000000000E+00  0.00000000000E+00 -0.23621483477E+03  0.23621483477E+03  0.00000000000E+00 0. -1.
        6    2    1    2  501    0 -0.11274776068E+03  0.82315221836E+02 -0.93315490774E+02  0.24063141043E+03  0.17235962863E+03 0.  0.
       24    2    3    3    0    0 -0.99287088671E+02 -0.95740967084E+01 -0.32573386972E+02  0.12956147874E+03  0.75997117898E+02 0.  0.
       -6    2    1    2    0  502  0.11274776068E+03 -0.82315221836E+02  0.10908806725E+03  0.24757083560E+03  0.17292558786E+03 0.  0.
      -24    2    5    5    0    0  0.42061188588E+02 -0.83739476900E+02  0.10044182498E+02  0.12579070141E+03  0.83312492354E+02 0.  0.
        5    1    3    3  501    0 -0.13460672013E+02  0.91889318544E+02 -0.60742103803E+02  0.11106993169E+03  0.46999998093E+01 0. -1.
       -5    1    5    5    0  502  0.70686572095E+02  0.14242550645E+01  0.99043884757E+02  0.12178013419E+03  0.46999998093E+01 0.  1.
       13    1    6    6    0    0  0.59619162414E+02 -0.80061446769E+02  0.24463149194E+02  0.10277512079E+03  0.00000000000E+00 0. -1.
      -13    1    4    4    0    0 -0.94890470889E+02  0.16850784613E+02 -0.15029993291E+02  0.97539997467E+02  0.00000000000E+00 0.  1.
       14    1    4    4    0    0 -0.43966177819E+01 -0.26424881321E+02 -0.17543393681E+02  0.32021481268E+02  0.00000000000E+00 0. -1.
      -14    1    6    6    0    0 -0.17557973826E+02 -0.36780301314E+01 -0.14418966696E+02  0.23015580616E+02  0.00000000000E+00 0.  1.
</event>
<event>
11   0  0.9284400E-04  0.1755524E+03  0.7546771E-02  0.1172488E+00
       21   -1    0    0  503  502  0.00000000000E+00  0.00000000000E+00  0.15773197643E+03  0.15773197643E+03  0.00000000000E+00 0. -1.
       21   -1    0    0  501  503  0.00000000000E+00  0.00000000000E+00 -0.23867610762E+03  0.23867610762E+03  0.00000000000E+00 0. -1.
        6    2    1    2  501    0  0.16249369202E+02  0.17956834188E+02 -0.12632820208E+03  0.21628100407E+03  0.17387400090E+03 0.  0.
       24    2    3    3    0    0 -0.73425457107E+01 -0.43003762912E+02 -0.66454170489E+02  0.12751297770E+03  0.99700381672E+02 0.  0.
       -6    2    1    2    0  502 -0.16249369202E+02 -0.17956834188E+02  0.45384070890E+02  0.18012707998E+03  0.17262549394E+03 0.  0.
        5    1    3    3  501    0  0.23591914913E+02  0.60960597100E+02 -0.59874031595E+02  0.88768026370E+02  0.46999998093E+01 0. -1.
       -5    1    5    5    0  502 -0.72869807642E+01 -0.17085715192E+02 -0.34385837334E+02  0.39363657854E+02  0.46999998093E+01 0.  1.
       13    1    5    5    0    0 -0.48647026795E+01 -0.57935785008E+02  0.32890432729E+02  0.66798211666E+02  0.00000000000E+00 0. -1.
      -13    1    4    4    0    0  0.73799622449E+01 -0.62449847668E+02 -0.78277095244E+02  0.10040792278E+03  0.00000000000E+00 0.  1.
       14    1    4    4    0    0 -0.14722507956E+02  0.19446084756E+02  0.11822924755E+02  0.27105054928E+02  0.00000000000E+00 0. -1.
      -14    1    5    5    0    0 -0.40976857584E+01  0.57064666012E+02  0.46879475495E+02  0.73965210459E+02  0.00000000000E+00 0.  1.
</event>
<event>
12   0  0.9284400E-04  0.1847591E+03  0.7546771E-02  0.1163875E+00
       21   -1    0    0  503  502  0.00000000000E+00  0.00000000000E+00  0.61064058152E+03  0.61064058152E+03  0.00000000000E+00 0. -1.
       21   -1    0    0  501  503  0.00000000000E+00  0.00000000000E+00 -0.81610433968E+02  0.81610433968E+02  0.00000000000E+00 0. -1.
        6    2    1    2  501    0  0.70023519688E+01 -0.58599335264E+02  0.66129080512E+02  0.19384021524E+03  0.17238926512E+03 0.  0.
       24    2    3    3    0    0  0.45454440539E+02 -0.13894113417E+02  0.89993382704E+02  0.13005373632E+03  0.80969209260E+02 0.  0.
       -6    2    1    2    0  502 -0.70023519688E+01  0.58599335264E+02  0.46290106704E+03  0.49841080024E+03  0.17508001859E+03 0.  0.
      -24    2    5    5    0    0 -0.64571723840E+02  0.22805965290E+01  0.24881987549E+03  0.26963387946E+03  0.81341194204E+02 0.  0.
        5    1    3    3  501    0 -0.38452088570E+02 -0.44705221847E+02 -0.23864302192E+02  0.63786478921E+02  0.46999998093E+01 0. -1.
       -5    1    5    5    0  502  0.57569371871E+02  0.56318738735E+02  0.21408119155E+03  0.22877692078E+03  0.46999998093E+01 0.  1.
       13    1    6    6    0    0 -0.22314280851E+02  0.33133927429E+02  0.17273948353E+03  0.17729837407E+03  0.00000000000E+00 0. -1.
      -13    1    4    4    0    0 -0.66742571158E+01 -0.16622794804E+02  0.72987454160E+02  0.75153386350E+02  0.00000000000E+00 0.  1.
       14    1    4    4    0    0  0.52128697655E+02  0.27286813865E+01  0.17005928544E+02  0.54900349971E+02  0.00000000000E+00 0. -1.
      -14    1    6    6    0    0 -0.42257442989E+02 -0.30853330900E+02  0.76080391957E+02  0.92335505392E+02  0.00000000000E+00 0.  1.
</event>
<event>
12   0  0.9284400E-04  0.1877759E+03  0.7546771E-02  0.1160781E+00
       21   -1    0    0  503  502  0.00000000000E+00  0.00000000000E+00  0.11114017022E+03  0.11114017022E+03  0.00000000000E+00 0.  1.
       21   -1    0    0  501  503  0.00000000000E+00  0.00000000000E+00 -0.46985697293E+03  0.46985697293E+03  0.00000000000E+00 0.  1.
        6    2    1    2  501    0  0.72101011706E+02 -0.20391388717E+01 -0.34651073667E+03  0.39411859984E+03  0.17336973823E+03 0.  0.
       24    2    3    3    0    0  0.69858446286E+02  0.45440470233E+02 -0.31941651801E+03  0.33920476676E+03  0.78025143136E+02 0.  0.
       -6    2    1    2    0  502 -0.72101011706E+02  0.20391388717E+01 -0.12206066037E+02  0.18687854331E+03  0.17196478688E+03 0.  0.
      -24    2    5    5    0    0 -0.45771831696E+02 -0.24199760078E+02 -0.70872861609E+02  0.11726828229E+03  0.77770164940E+02 0.  0.
        5    1    3    3  501    0  0.22425654199E+01 -0.47479609105E+02 -0.27094218660E+02  0.54913833079E+02  0.46999998093E+01 0. -1.
       -5    1    5    5    0  502 -0.26329180010E+02  0.26238898950E+02  0.58666795572E+02  0.69610261018E+02  0.46999998093E+01 0.  1.
       13    1    6    6    0    0 -0.18919449719E+02  0.14206637125E+02 -0.66048246639E+02  0.70158000258E+02  0.00000000000E+00 0. -1.
      -13    1    4    4    0    0  0.59792679324E+02  0.18742100440E+01 -0.11149723398E+03  0.12653185508E+03  0.00000000000E+00 0.  1.
       14    1    4    4    0    0  0.10065766962E+02  0.43566260189E+02 -0.20791928403E+03  0.21267291168E+03  0.00000000000E+00 0. -1.
      -14    1    6    6    0    0 -0.26852381977E+02 -0.38406397203E+02 -0.48246149707E+01  0.47110282036E+02  0.00000000000E+00 0.  1.
</event>
<event>
12   0  0.9284400E-04  0.2093234E+03  0.7546771E-02  0.1142592E+00
       21   -1    0    0  503  502  0.00000000000E+00  0.00000000000E+00  0.19650796795E+03  0.19650796795E+03  0.00000000000E+00 0. -1.
       21   -1    0    0  501  503  0.00000000000E+00  0.00000000000E+00 -0.22247511059E+03  0.22247511059E+03  0.00000000000E+00 0.  1.
        6    2    1    2  501    0  0.11243542326E+03  0.18013539900E+02  0.74347168027E+01  0.20701144659E+03  0.17272015511E+03 0.  0.
       24    2    3    3    0    0  0.44634564513E+02 -0.35815697087E+02 -0.40444612765E+02  0.10797073072E+03  0.82139536671E+02 0.  0.
       -6    2    1    2    0  502 -0.11243542326E+03 -0.18013539900E+02 -0.33401859445E+02  0.21197163195E+03  0.17564189852E+03 0.  0.
      -24    2    5    5    0    0 -0.12959884441E+03  0.11323912618E+02  0.98935017453E+01  0.15672810342E+03  0.86843108843E+02 0.  0.
        5    1    3    3  501    0  0.67800858745E+02  0.53829236987E+02  0.47879329567E+02  0.99040715865E+02  0.46999998093E+01 0. -1.
       -5    1    5    5    0  502  0.17163421156E+02 -0.29337452517E+02 -0.43295361190E+02  0.55243528533E+02  0.46999998093E+01 0.  1.
       13    1    6    6    0    0 -0.41376764283E+02 -0.36055785812E+02  0.13519003531E+02  0.56522736749E+02  0.00000000000E+00 0. -1.
      -13    1    4    4    0    0 -0.15012637885E+02  0.13416511407E+02 -0.19067477548E+02  0.27729961678E+02  0.00000000000E+00 0.  1.
       14    1    4    4    0    0  0.59647202398E+02 -0.49232208494E+02 -0.21377135217E+02  0.80240769047E+02  0.00000000000E+00 0. -1.
      -14    1    6    6    0    0 -0.88222080130E+02  0.47379698430E+02 -0.36255017856E+01  0.10020536667E+03  0.00000000000E+00 0.  1.
</event>
<event>
12   0  0.9284400E-04  0.2085292E+03  0.7546771E-02  0.1143918E+00
       21   -1    0    0  503  502  0.00000000000E+00  0.00000000000E+00  0.64205226596E+03  0.64205226596E+03  0.00000000000E+00 0.  1.
       21   -1    0    0  501  503  0.00000000000E+00  0.00000000000E+00 -0.77985254937E+02  0.77985254937E+02  0.00000000000E+00 0.  1.
        6    2    1    2  501    0  0.21508203396E+02 -0.10373832880E+03  0.14338723079E+03  0.25306979105E+03  0.17961118426E+03 0.  0.
       24    2    3    3    0    0  0.54990691501E+02 -0.12995755673E+03  0.93261462114E+02  0.18716677438E+03  0.80129635048E+02 0.  0.
       -6    2    1    2    0  502 -0.21508203396E+02  0.10373832880E+03  0.42067978023E+03  0.46696772985E+03  0.17280954705E+03 0.  0.
      -24    2    5    5    0    0  0.38284818511E+02  0.10047936484E+03  0.34432712990E+03  0.36982019501E+03  0.81510577007E+02 0.  0.
        5    1    3    3  501    0 -0.33482488105E+02  0.26219227923E+02  0.50125768678E+02  0.65903016671E+02  0.46999998093E+01 0. -1.
       -5    1    5    5    0  502 -0.59793021907E+02  0.32589639623E+01  0.76352650327E+02  0.97147534838E+02  0.46999998093E+01 0.  1.
       13    1    6    6    0    0  0.35023856546E+02  0.85519785562E+01  0.51352467089E+02  0.62744583358E+02  0.00000000000E+00 0. -1.
      -13    1    4    4    0    0  0.51410767383E+02 -0.34727007549E+02  0.59789574422E+02  0.86161622929E+02  0.00000000000E+00 0.  1.
       14    1    4    4    0    0  0.35799241181E+01 -0.95230549177E+02  0.33471887693E+02  0.10100515145E+03  0.00000000000E+00 0. -1.
      -14    1    6    6    0    0  0.32609619654E+01  0.91927386285E+02  0.29297466281E+03  0.30707561165E+03  0.00000000000E+00 0.  1.
</event>
<event>
12   0  0.9284400E-04  0.1744274E+03  0.7546771E-02  0.1173363E+00
       21   -1    0    0  501  502  0.00000000000E+00  0.00000000000E+00  0.16353163098E+03  0.16353163098E+03  0.00000000000E+00 0. -1.
       21   -1    0    0  502  503  0.00000000000E+00  0.00000000000E+00 -0.26003354348E+03  0.26003354348E+03  0.00000000000E+00 0. -1.
       -6    2    1    2    0  503 -0.19688290116E+02  0.43179043513E+01 -0.16141454552E+03  0.23765430758E+03  0.17325888530E+03 0.  0.
      -24    2    3    3    0    0  0.79693266200E+01  0.64615966558E+02 -0.70586291804E+02  0.12508139013E+03  0.80151083996E+02 0.  0.
        6    2    1    2  501    0  0.19688290116E+02 -0.43179043513E+01  0.64912633026E+02  0.18591086688E+03  0.17304024801E+03 0.  0.
       24    2    5    5    0    0  0.36405707322E+02 -0.24092786338E+02 -0.22434309519E+02  0.94685342132E+02  0.80970228430E+02 0.  0.
        5    1    5    5  501    0 -0.16717417206E+02  0.19774881986E+02  0.87346942546E+02  0.91225524750E+02  0.46999998093E+01 0. -1.
       -5    1    3    3    0  503 -0.27657616736E+02 -0.60298062207E+02 -0.90828253721E+02  0.11257291744E+03  0.46999998093E+01 0.  1.
       13    1    4    4    0    0 -0.20755528130E+02  0.44714409822E+01 -0.51570230074E+02  0.55769833802E+02  0.00000000000E+00 0. -1.
      -13    1    6    6    0    0  0.15596317188E+02  0.15933005418E+01 -0.49523815919E+02  0.51946049509E+02  0.00000000000E+00 0.  1.
       14    1    6    6    0    0  0.20809390135E+02 -0.25686086879E+02  0.27089506400E+02  0.42739292623E+02  0.00000000000E+00 0. -1.
      -14    1    4    4    0    0  0.28724854750E+02  0.60144525576E+02 -0.19016061730E+02  0.69311556330E+02  0.00000000000E+00 0.  1.
</event>
<event>
12   0  0.9284400E-04  0.2029588E+03  0.7546771E-02  0.1148759E+00
       21   -1    0    0  501  502  0.00000000000E+00  0.00000000000E+00  0.15321561989E+03  0.15321561989E+03  0.00000000000E+00 0. -1.
       21   -1    0    0  502  503  0.00000000000E+00  0.00000000000E+00 -0.26521281073E+03  0.26521281073E+03  0.00000000000E+00 0. -1.
       -6    2    1    2    0  503 -0.74488466626E+02  0.54308645940E+02 -0.87518773975E+02  0.22102443644E+03  0.18081566586E+03 0.  0.
      -24    2    3    3    0    0 -0.10848746633E+03 -0.15238675748E+01 -0.73498808912E+02  0.15400316396E+03  0.80889103565E+02 0.  0.
        6    2    1    2  501    0  0.74488466626E+02 -0.54308645940E+02 -0.24478416861E+02  0.19740399417E+03  0.17283281905E+03 0.  0.
       24    2    5    5    0    0  0.10672383262E+03 -0.54056568996E+02 -0.53395369653E+02  0.15384412135E+03  0.80652706533E+02 0.  0.
        5    1    5    5  501    0 -0.32235365997E+02 -0.25207694426E+00  0.28916952792E+02  0.43559872827E+02  0.46999998093E+01 0. -1.
       -5    1    3    3    0  503  0.33998999704E+02  0.55832513515E+02 -0.14019965064E+02  0.67021272480E+02  0.46999998093E+01 0.  1.
       13    1    4    4    0    0 -0.45136180165E+01  0.26703291247E+02 -0.20310049052E+02  0.33851685386E+02  0.00000000000E+00 0. -1.
      -13    1    6    6    0    0  0.83190949450E+01  0.12919726941E+02  0.10628099214E+02  0.18683767764E+02  0.00000000000E+00 0.  1.
       14    1    6    6    0    0  0.98404737677E+02 -0.66976295937E+02 -0.64023468867E+02  0.13516035358E+03  0.00000000000E+00 0. -1.
      -14    1    4    4    0    0 -0.10397384831E+03 -0.28227158822E+02 -0.53188759860E+02  0.12015147857E+03  0.00000000000E+00 0.  1.
</event>
<event>
12   0  0.9284400E-04  0.2099671E+03  0.7546771E-02  0.1141695E+00
       21   -1    0    0  503  502  0.00000000000E+00  0.00000000000E+00  0.17590877847E+03  0.17590877847E+03  0.00000000000E+00 0.  1.
       21   -1    0    0  501  503  0.00000000000E+00  0.00000000000E+00 -0.28181211030E+03  0.28181211030E+03  0.00000000000E+00 0.  1.
        6    2    1    2  501    0 -0.39198455645E+02  0.11154294080E+03 -0.12978614297E+03  0.24639985899E+03  0.17288753870E+03 0.  0.
       24    2    3    3    0    0 -0.25842178258E+02  0.19651164415E+02 -0.61311729852E+00  0.87245062419E+02  0.80977395387E+02 0.  0.
       -6    2    1    2    0  502  0.39198455645E+02 -0.11154294080E+03  0.23882811138E+02  0.21132102978E+03  0.17351611566E+03 0.  0.
      -24    2    5    5    0    0 -0.10986533636E+02 -0.12491211995E+03 -0.11781148387E+02  0.14814448265E+03  0.78001606709E+02 0.  0.
        5    1    3    3  501    0 -0.13356277386E+02  0.91891776381E+02 -0.12917302568E+03  0.15915479657E+03  0.46999998093E+01 0. -1.
       -5    1    5    5    0  502  0.50184989280E+02  0.13369179156E+02  0.35663959525E+02  0.63176547132E+02  0.46999998093E+01 0.  1.
       13    1    6    6    0    0 -0.30567795846E+02 -0.72407676960E+02 -0.36790161272E+02  0.86780054114E+02  0.00000000000E+00 0. -1.
      -13    1    4    4    0    0 -0.51409021058E+02  0.36556861602E+01  0.14461281902E+02  0.53529245854E+02  0.00000000000E+00 0.  1.
       14    1    4    4    0    0  0.25566842800E+02  0.15995478255E+02 -0.15074399201E+02  0.33715816565E+02  0.00000000000E+00 0. -1.
      -14    1    6    6    0    0  0.19581262210E+02 -0.52504442993E+02  0.25009012885E+02  0.61364428533E+02  0.00000000000E+00 0.  1.
</event>
<event>
12   0  0.9284400E-04  0.2203815E+03  0.7546771E-02  0.1134429E+00
       21   -1    0    0  503  502  0.00000000000E+00  0.00000000000E+00  0.69839045382E+02  0.69839045382E+02  0.00000000000E+00 0.  1.
       21   -1    0    0  501  503  0.00000000000E+00  0.00000000000E+00 -0.68160793686E+03  0.68160793686E+03  0.00000000000E+00 0.  1.
        6    2    1    2  501    0 -0.13186826927E+03 -0.25565083079E+02 -0.29992664039E+03  0.36959152755E+03  0.16911266571E+03 0.  0.
       24    2    3    3    0    0 -0.27209163314E+01 -0.47277789109E+02 -0.14088038349E+03  0.16351318757E+03  0.68166614473E+02 0.  0.
       -6    2    1    2    0  502  0.13186826927E+03  0.25565083079E+02 -0.31184225109E+03  0.38185545469E+03  0.17471458097E+03 0.  0.
      -24    2    5    5    0    0  0.92966965747E+02  0.15641245860E+02 -0.84079814448E+02  0.15053400843E+03  0.81875314983E+02 0.  0.
        5    1    3    3  501    0 -0.12914735294E+03  0.21712706030E+02 -0.15904625690E+03  0.20607833997E+03  0.46999998093E+01 0. -1.
       -5    1    5    5    0  502  0.38901303524E+02  0.99238372189E+01 -0.22776243664E+03  0.23132144627E+03  0.46999998093E+01 0.  1.
       13    1    6    6    0    0 -0.11060624946E+02  0.12500640042E+02 -0.27245342508E+02  0.31951715353E+02  0.00000000000E+00 0. -1.
      -13    1    4    4    0    0 -0.19073824050E+02 -0.22334340272E+02 -0.12747195801E+03  0.13081182514E+03  0.00000000000E+00 0.  1.
       14    1    4    4    0    0  0.16352907719E+02 -0.24943448837E+02 -0.13408425486E+02  0.32701362430E+02  0.00000000000E+00 0. -1.
      -14    1    6    6    0    0  0.10402759069E+03  0.31406058187E+01 -0.56834471940E+02  0.11858229307E+03  0.00000000000E+00 0.  1.
</event>
<event>
12   0  0.9284400E-04  0.2416773E+03  0.7546771E-02  0.1118752E+00
       21   -1    0    0  501  502  0.00000000000E+00  0.00000000000E+00  0.46161197882E+03  0.46161197882E+03  0.00000000000E+00 0. -1.
       21   -1    0    0  502  503  0.00000000000E+00  0.00000000000E+00 -0.13318996741E+03  0.13318996741E+03  0.00000000000E+00 0. -1.
       -6    2    1    2    0  503  0.14727073796E+03  0.81413188102E+02  0.96731307198E+02  0.26031689491E+03  0.17346804469E+03 0.  0.
      -24    2    3    3    0    0  0.93401016723E+02  0.23872030751E+02  0.12438655055E+03  0.17665188348E+03  0.80251169486E+02 0.  0.
        6    2    1    2  501    0 -0.14727073796E+03 -0.81413188102E+02  0.23169070421E+03  0.33448505131E+03  0.17286668181E+03 0.  0.
       24    2    5    5    0    0 -0.12616841704E+03 -0.10533879174E+03  0.12196996145E+03  0.22012389599E+03  0.81013132175E+02 0.  0.
        5    1    5    5  501    0 -0.21102320918E+02  0.23925603640E+02  0.10972074276E+03  0.11436115532E+03  0.46999998093E+01 0. -1.
       -5    1    3    3    0  503  0.53869721235E+02  0.57541157351E+02 -0.27655243348E+02  0.83665011433E+02  0.46999998093E+01 0.  1.
       13    1    4    4    0    0  0.35251166484E+02  0.32163673005E+02  0.11024959555E+02  0.48976487551E+02  0.00000000000E+00 0. -1.
      -13    1    6    6    0    0 -0.16282451359E+02  0.13498549222E+02  0.10633599525E+02  0.23672821805E+02  0.00000000000E+00 0.  1.
       14    1    6    6    0    0 -0.10988596568E+03 -0.11883734096E+03  0.11133636193E+03  0.19645107418E+03  0.00000000000E+00 0. -1.
      -14    1    4    4    0    0  0.58149850239E+02 -0.82916422536E+01  0.11336159099E+03  0.12767539593E+03  0.00000000000E+00 0.  1.
</event>
<event>
12   0  0.9284400E-04  0.2816491E+03  0.7546771E-02  0.1094938E+00
       21   -1    0    0  501  502  0.00000000000E+00  0.00000000000E+00  0.27408770415E+03  0.27408770415E+03  0.00000000000E+00 0.  1.
       21   -1    0    0  502  503  0.00000000000E+00  0.00000000000E+00 -0.29370730437E+03  0.29370730437E+03  0.00000000000E+00 0. -1.
       -6    2    1    2    0  503 -0.50541813081E+02 -0.21563265976E+03  0.28638621008E+02  0.28310135087E+03  0.17399507299E+03 0.  0.
      -24    2    3    3    0    0 -0.23922838503E+02 -0.63690559203E+02  0.57115618286E+02  0.12616824059E+03  0.89595990687E+02 0.  0.
        6    2    1    2  501    0  0.50541813081E+02  0.21563265976E+03 -0.48258221228E+02  0.28469365766E+03  0.17224895927E+03 0.  0.
       24    2    5    5    0    0  0.98788295783E+01  0.77283402946E+02  0.36911927168E+02  0.11715250073E+03  0.79321512945E+02 0.  0.
        5    1    5    5  501    0  0.40662983503E+02  0.13834925681E+03 -0.85170148396E+02  0.16754115693E+03  0.46999998093E+01 0. -1.
       -5    1    3    3    0  503 -0.26618974579E+02 -0.15194210056E+03 -0.28476997279E+02  0.15693311028E+03  0.46999998093E+01 0.  1.
       13    1    4    4    0    0 -0.45130058481E+02 -0.46760205292E+02  0.23275615504E+01  0.65028120996E+02  0.00000000000E+00 0. -1.
      -13    1    6    6    0    0 -0.44004869896E-01  0.13298425044E+02  0.49443907798E+02  0.51201074826E+02  0.00000000000E+00 0.  1.
       14    1    6    6    0    0  0.99228344482E+01  0.63984977902E+02 -0.12531980630E+02  0.65951425907E+02  0.00000000000E+00 0. -1.
      -14    1    4    4    0    0  0.21207219979E+02 -0.16930353910E+02  0.54788056736E+02  0.61140119591E+02  0.00000000000E+00 0.  1.
</event>
<event>
12   0  0.9284400E-04  0.2453455E+03  0.7546771E-02  0.1116568E+00
       21   -1    0    0  501  502  0.00000000000E+00  0.00000000000E+00  0.44923765812E+03  0.44923765812E+03  0.00000000000E+00 0.  1.
       21   -1    0    0  502  503  0.00000000000E+00  0.00000000000E+00 -0.14198607753E+03  0.14198607753E+03  0.00000000000E+00 0.  1.
        6    2    1    2  501    0  0.96024198037E+02  0.14306045363E+03  0.22837263705E+03  0.33518424876E+03  0.17466390373E+03 0.  0.
       24    2    3    3    0    0  0.89689787396E+02  0.16138447596E+03  0.23923729828E+03  0.31246805598E+03  0.79451834948E+02 0.  0.
       -6    2    1    2    0  503 -0.96024198037E+02 -0.14306045363E+03  0.78878943545E+02  0.25603948688E+03  0.17218417787E+03 0.  0.
      -24    2    5    5    0    0 -0.90693751360E+02 -0.23013211816E+02  0.41009344414E+02  0.12996034323E+03  0.80330318241E+02 0.  0.
        5    1    3    3  501    0  0.63344106412E+01 -0.18324022337E+02 -0.10864661227E+02  0.22716192783E+02  0.46999998093E+01 0. -1.
       -5    1    5    5    0  503 -0.53304466765E+01 -0.12004724181E+03  0.37869599131E+02  0.12607914365E+03  0.46999998093E+01 0.  1.
       13    1    6    6    0    0 -0.92295599195E+02 -0.43195883985E+02  0.40646410712E+02  0.10971095081E+03  0.00000000000E+00 0. -1.
      -13    1    4    4    0    0  0.41025528870E+02  0.14325820811E+03  0.17418775236E+03  0.22923215587E+03  0.00000000000E+00 0.  1.
       14    1    4    4    0    0  0.48664258526E+02  0.18126267853E+02  0.65049545913E+02  0.83235900113E+02  0.00000000000E+00 0. -1.
      -14    1    6    6    0    0  0.16018478344E+01  0.20182672169E+02  0.36293370190E+00  0.20249392417E+02  0.00000000000E+00 0.  1.
</event>
<event>
12   0  0.9284400E-04  0.1879217E+03  0.7546771E-02  0.1160929E+00
       21   -1    0    0  501  502  0.00000000000E+00  0.00000000000E+00  0.32235001569E+03  0.32235001569E+03  0.00000000000E+00 0.  1.
       21   -1    0    0  502  503  0.00000000000E+00  0.00000000000E+00 -0.15661046895E+03  0.15661046895E+03  0.00000000000E+00 0.  1.
       -6    2    1    2    0  503  0.96517707746E+01  0.66590308767E+02 -0.50807822949E+02  0.19224230733E+03  0.17276644337E+03 0.  0.
      -24    2    3    3    0    0 -0.35595681049E+02  0.35240752143E+02 -0.85271067051E+02  0.12712754872E+03  0.79883012250E+02 0.  0.
        6    2    1    2  501    0 -0.96517707746E+01 -0.66590308767E+02  0.21654736968E+03  0.28671817730E+03  0.17546259994E+03 0.  0.
       24    2    5    5    0    0 -0.53867303084E+02 -0.91431552555E+02  0.12734053710E+03  0.18399500724E+03  0.79856966861E+02 0.  0.
        5    1    5    5  501    0  0.44215532310E+02  0.24841243787E+02  0.89206832580E+02  0.10272317006E+03  0.46999998093E+01 0. -1.
       -5    1    3    3    0  503  0.45247451823E+02  0.31349556624E+02  0.34463244103E+02  0.65114758613E+02  0.46999998093E+01 0.  1.
       13    1    4    4    0    0 -0.10246131041E+02 -0.13213451416E+02  0.83622302050E+01  0.18695063349E+02  0.00000000000E+00 0. -1.
      -13    1    6    6    0    0  0.15498876197E+02 -0.33400087387E+02  0.14962919846E+02  0.39745062223E+02  0.00000000000E+00 0.  1.
       14    1    6    6    0    0 -0.69366179281E+02 -0.58031465168E+02  0.11237761726E+03  0.14424994502E+03  0.00000000000E+00 0. -1.
      -14    1    4    4    0    0 -0.25349550008E+02  0.48454203560E+02 -0.93633297256E+02  0.10843248537E+03  0.00000000000E+00 0.  1.
</event>
<event>
11   0  0.9284400E-04  0.2655536E+03  0.7546771E-02  0.1107424E+00
       21   -1    0    0  503  502  0.00000000000E+00  0.00000000000E+00  0.37873075469E+03  0.37873075469E+03  0.00000000000E+00 0.  1.
       21   -1    0    0  501  503  0.00000000000E+00  0.00000000000E+00 -0.17036940632E+03  0.17036940632E+03  0.00000000000E+00 0. -1.
       24    2    1    2    0    0 -0.96261382582E+02  0.16753997000E+03  0.78922242966E+02  0.22358419477E+03  0.80157821793E+02 0.  0.
       -6    2    1    2    0  502  0.12487928228E+03 -0.15909033615E+03  0.10125655057E+03  0.28420341499E+03  0.17208754127E+03 0.  0.
      -24    2    4    4    0    0  0.92820119646E+02 -0.12607451559E+03  0.13859071145E+03  0.22475794516E+03  0.82452353039E+02 0.  0.
        5    1    1    2  501    0 -0.28617899702E+02 -0.84496338474E+01  0.28182554830E+02  0.41312551246E+02  0.46999998093E+01 0. -1.
       -5    1    4    4    0  502  0.32059162637E+02 -0.33015820564E+02 -0.37334160882E+02  0.59445469832E+02  0.46999998093E+01 0.  1.
       13    1    5    5    0    0  0.80588671310E+02 -0.92555250592E+02  0.14341047240E+03  0.18875267402E+03  0.00000000000E+00 0. -1.
      -13    1    3    3    0    0 -0.23391784153E+02  0.13101817652E+02  0.40464834596E+02  0.48541075705E+02  0.00000000000E+00 0.  1.
       14    1    3    3    0    0 -0.72869598429E+02  0.15443815234E+03  0.38457408370E+02  0.17504311907E+03  0.00000000000E+00 0. -1.
      -14    1    5    5    0    0  0.12231448337E+02 -0.33519264993E+02 -0.48197609541E+01  0.36005271139E+02  0.00000000000E+00 0.  1.
</event>
<event>
12   0  0.9284400E-04  0.2254981E+03  0.7546771E-02  0.1130020E+00
       21   -1    0    0  503  502  0.00000000000E+00  0.00000000000E+00  0.23362652079E+03  0.23362652079E+03  0.00000000000E+00 0.  1.
       21   -1    0    0  501  503  0.00000000000E+00  0.00000000000E+00 -0.35241012419E+03  0.35241012419E+03  0.00000000000E+00 0. -1.
        6    2    1    2  501    0  0.88555454192E+02 -0.11342660208E+03 -0.24112028694E+03  0.32949104518E+03  0.17238820596E+03 0.  0.
       24    2    3    3    0    0  0.82870049749E+02 -0.47400274719E+01 -0.11452707435E+03  0.16247898934E+03  0.79956602058E+02 0.  0.
       -6    2    1    2    0  502 -0.88555454192E+02  0.11342660208E+03  0.12233668354E+03  0.25654559980E+03  0.17361370369E+03 0.  0.
      -24    2    5    5    0    0 -0.55149369480E+02  0.54703470341E+01  0.16007792191E+02  0.10130886886E+03  0.83281809826E+02 0.  0.
        5    1    3    3  501    0  0.56854044431E+01 -0.10868657461E+03 -0.12659321258E+03  0.16701205584E+03  0.46999998093E+01 0. -1.
       -5    1    5    5    0  502 -0.33406084712E+02  0.10795625505E+03  0.10632889135E+03  0.15523673094E+03  0.46999998093E+01 0.  1.
       13    1    6    6    0    0 -0.40147528363E+01 -0.31948397464E+02  0.19854609918E+02  0.37828876218E+02  0.00000000000E+00 0. -1.
      -13    1    4    4    0    0  0.41018224490E+02 -0.41716318628E+02 -0.48437343725E+02  0.75953421565E+02  0.00000000000E+00 0.  1.
       14    1    4    4    0    0  0.41851825259E+02  0.36976291157E+02 -0.66089730626E+02  0.86525567779E+02  0.00000000000E+00 0. -1.
      -14    1    6    6    0    0 -0.51134616643E+02  0.37418744499E+02 -0.38468177276E+01  0.63479992641E+02  0.00000000000E+00 0.  1.
</event>
<event>
12   0  0.9284400E-04  0.2131624E+03  0.7546771E-02  0.1139381E+00
       21   -1    0    0  501  502  0.00000000000E+00  0.00000000000E+00  0.56243777457E+03  0.56243777457E+03  0.00000000000E+00 0.  1.
       21   -1    0    0  502  503  0.00000000000E+00  0.00000000000E+00 -0.10581589513E+03  0.10581589513E+03  0.00000000000E+00 0.  1.
       -6    2    1    2    0  503 -0.12090227097E+03 -0.23850702496E+02  0.63344468637E+02  0.22092234161E+03  0.17206959111E+03 0.  0.
      -24    2    3    3    0    0 -0.53880768018E+02 -0.61540954489E+02 -0.10200768880E+02  0.11441680696E+03  0.79351898448E+02 0.  0.
        6    2    1    2  501    0  0.12090227097E+03  0.23850702496E+02  0.39327741080E+03  0.44733132808E+03  0.17393096361E+03 0.  0.
       24    2    5    5    0    0  0.10502716048E+03  0.32619427089E+02  0.14410473581E+03  0.19745531558E+03  0.78279596989E+02 0.  0.
        5    1    5    5  501    0  0.15875110486E+02 -0.87687245928E+01  0.24917267499E+03  0.24987601250E+03  0.46999998093E+01 0. -1.
       -5    1    3    3    0  503 -0.67021502947E+02  0.37690251992E+02  0.73545237517E+02  0.10650553466E+03  0.46999998093E+01 0.  1.
       13    1    4    4    0    0  0.76720173744E+01  0.13368755202E+02  0.51564901443E+01  0.16253395240E+02  0.00000000000E+00 0. -1.
      -13    1    6    6    0    0  0.32964458649E+02  0.44211957736E+02  0.93797354736E+02  0.10880853136E+03  0.00000000000E+00 0.  1.
       14    1    6    6    0    0  0.72062701830E+02 -0.11592530646E+02  0.50307381075E+02  0.88646784219E+02  0.00000000000E+00 0. -1.
      -14    1    4    4    0    0 -0.61552785392E+02 -0.74909709690E+02 -0.15357259024E+02  0.98163411718E+02  0.00000000000E+00 0.  1.
</event>
<event>
11   0  0.9284400E-04  0.2387919E+03  0.7546771E-02  0.1125978E+00
       21   -1    0    0  503  502  0.00000000000E+00  0.00000000000E+00  0.10756116212E+04  0.10756116212E+04  0.00000000000E+00 0.  1.
       21   -1    0    0  501  503  0.00000000000E+00  0.00000000000E+00 -0.60505005879E+02  0.60505005879E+02  0.00000000000E+00 0. -1.
       24    2    1    2    0    0 -0.12818980209E+03 -0.25396594891E+02  0.10775309193E+03  0.18769149409E+03  0.80868756274E+02 0.  0.
       -6    2    1    2    0  502  0.11172540711E+03 -0.35916377880E+02  0.75345706713E+03  0.78188214701E+03  0.17282820082E+03 0.  0.
      -24    2    4    4    0    0  0.25494746969E+02 -0.50196002427E+02  0.20931740650E+03  0.23074723186E+03  0.79125770534E+02 0.  0.
        5    1    1    2  501    0  0.16464394984E+02  0.61312972771E+02  0.15389645623E+03  0.16654298596E+03  0.46999998093E+01 0. -1.
       -5    1    4    4    0  502  0.86230660141E+02  0.14279624547E+02  0.54413966063E+03  0.55113491515E+03  0.46999998093E+01 0.  1.
       13    1    5    5    0    0  0.27455866548E+01  0.13253890506E+02  0.32279589738E+01  0.13914868981E+02  0.00000000000E+00 0. -1.
      -13    1    3    3    0    0  0.12634387902E+01 -0.10419748165E+02  0.38924932951E+02  0.40315230802E+02  0.00000000000E+00 0.  1.
       14    1    3    3    0    0 -0.12945324088E+03 -0.14976846727E+02  0.68828158984E+02  0.14737626329E+03  0.00000000000E+00 0. -1.
      -14    1    5    5    0    0  0.22749160314E+02 -0.63449892933E+02  0.20608944753E+03  0.21683236288E+03  0.00000000000E+00 0.  1.
</event>
<event>
12   0  0.9284400E-04  0.1858648E+03  0.7546771E-02  0.1162297E+00
       21   -1    0    0  501  502  0.00000000000E+00  0.00000000000E+00  0.86619926974E+02  0.86619926974E+02  0.00000000000E+00 0. -1.
       21   -1    0    0  502  503  0.00000000000E+00  0.00000000000E+00 -0.43799050239E+03  0.43799050239E+03  0.00000000000E+00 0.  1.
       -6    2    1    2    0  503  0.66411093743E+02  0.56747669416E+01 -0.25470417984E+03  0.31530925629E+03  0.17350236748E+03 0.  0.
      -24    2    3    3    0    0 -0.10048369139E+02  0.27299425830E+02 -0.20764270850E+03  0.22284008619E+03  0.75471724800E+02 0.  0.
        6    2    1    2  501    0 -0.66411093743E+02 -0.56747669416E+01 -0.96666395577E+02  0.20930117308E+03  0.17326266957E+03 0.  0.
       24    2    5    5    0    0 -0.52555316012E+02  0.20885627090E+02 -0.13066624362E+03  0.16374333322E+03  0.80869903505E+02 0.  0.
        5    1    5    5  501    0 -0.13855777732E+02 -0.26560394032E+02  0.33999848038E+02  0.45557839858E+02  0.46999998093E+01 0. -1.
       -5    1    3    3    0  503  0.76459462882E+02 -0.21624658889E+02 -0.47061471333E+02  0.92469170098E+02  0.46999998093E+01 0.  1.
       13    1    4    4    0    0 -0.18509339855E+02 -0.11118398988E+02 -0.15169772531E+02  0.26388187823E+02  0.00000000000E+00 0. -1.
      -13    1    6    6    0    0 -0.44585005043E+02  0.50556012548E+02 -0.81450240869E+02  0.10572546910E+03  0.00000000000E+00 0.  1.
       14    1    6    6    0    0 -0.79703109688E+01 -0.29670385458E+02 -0.49216002746E+02  0.58017864115E+02  0.00000000000E+00 0. -1.
      -14    1    4    4    0    0  0.84609707160E+01  0.38417824818E+02 -0.19247293597E+03  0.19645189836E+03  0.00000000000E+00 0.  1.
</event>
<event>
12   0  0.9284400E-04  0.1877755E+03  0.7546771E-02  0.1160483E+00
        2   -1    0    0  502    0  0.00000000000E+00  0.00000000000E+00  0.58797306907E+03  0.58797306907E+03  0.00000000000E+00 0. -1.
       -2   -1    0    0    0  501  0.00000000000E+00  0.00000000000E+00 -0.60696032691E+02  0.60696032691E+02  0.00000000000E+00 0.  1.
        6    2    1    2  502    0  0.64584942102E+02 -0.24836391870E+02  0.29875649547E+03  0.35271471921E+03  0.17425317344E+03 0.  0.
       24    2    3    3    0    0  0.39844529829E+02 -0.58290841527E+02  0.29133813060E+03  0.31018931107E+03  0.79712568641E+02 0.  0.
       -6    2    1    2    0  501 -0.64584942102E+02  0.24836391870E+02  0.22852054091E+03  0.29595438255E+03  0.17486937361E+03 0.  0.
      -24    2    5    5    0    0 -0.91658707525E+02  0.64538832304E+02  0.14765942997E+03  0.20177433259E+03  0.79642918658E+02 0.  0.
        5    1    3    3  502    0  0.24740412273E+02  0.33454449657E+02  0.74183648676E+01  0.42525408132E+02  0.46999998093E+01 0. -1.
       -5    1    5    5    0  501  0.27073765424E+02 -0.39702440434E+02  0.80861110938E+02  0.94180049963E+02  0.46999998093E+01 0.  1.
       13    1    6    6    0    0 -0.91773996223E+02  0.32606014720E+02  0.76730952547E+02  0.12398894167E+03  0.00000000000E+00 0. -1.
      -13    1    4    4    0    0 -0.24049041738E+02 -0.11030037614E+02  0.59796522346E+02  0.65388395170E+02  0.00000000000E+00 0.  1.
       14    1    4    4    0    0  0.63893571567E+02 -0.47260803913E+02  0.23154160826E+03  0.24480091590E+03  0.00000000000E+00 0. -1.
      -14    1    6    6    0    0  0.11528869713E+00  0.31932817584E+02  0.70928477422E+02  0.77785390915E+02  0.00000000000E+00 0.  1.
</event>
<event>
12   0  0.9284400E-04  0.1863488E+03  0.7546771E-02  0.1162088E+00
       21   -1    0    0  503  502  0.00000000000E+00  0.00000000000E+00  0.93348921229E+02  0.93348921229E+02  0.00000000000E+00 0.  1.
       21   -1    0    0  501  503  0.00000000000E+00  0.00000000000E+00 -0.67356796819E+03  0.67356796819E+03  0.00000000000E+00 0.  1.
        6    2    1    2  501    0 -0.92947062150E+01 -0.66392484384E+02 -0.54828686981E+03  0.57908924814E+03  0.17387211440E+03 0.  0.
       24    2    3    3    0    0 -0.58135366438E+02 -0.50205941294E+02 -0.21913810549E+03  0.24590999711E+03  0.80931205538E+02 0.  0.
       -6    2    1    2    0  502  0.92947062150E+01  0.66392484384E+02 -0.31932177152E+02  0.18782764127E+03  0.17252595556E+03 0.  0.
      -24    2    5    5    0    0  0.80460133740E+01  0.66528930528E+02 -0.85360642010E+02  0.13417814261E+03  0.78908160682E+02 0.  0.
        5    1    3    3  501    0  0.48840660223E+02 -0.16186543091E+02 -0.32914876432E+03  0.33317925103E+03  0.46999998093E+01 0. -1.
       -5    1    5    5    0  502  0.12486928410E+01 -0.13644614389E+00  0.53428464858E+02  0.53649498661E+02  0.46999998093E+01 0.  1.
       13    1    6    6    0    0 -0.15831144955E+02  0.72254956742E+02 -0.43965952294E+02  0.86048874981E+02  0.00000000000E+00 0. -1.
      -13    1    4    4    0    0 -0.18973074409E+02 -0.24537357129E+02 -0.18594359712E+03  0.18851281325E+03  0.00000000000E+00 0.  1.
       14    1    4    4    0    0 -0.39162292028E+02 -0.25668584164E+02 -0.33194508369E+02  0.57397183866E+02  0.00000000000E+00 0. -1.
      -14    1    6    6    0    0  0.23877158329E+02 -0.57260262141E+01 -0.41394689715E+02  0.48129267631E+02  0.00000000000E+00 0.  1.
</event>
<event>
12   0  0.9284400E-04  0.1789911E+03  0.7546771E-02  0.1169738E+00
       21   -1    0    0  503  502  0.00000000000E+00  0.00000000000E+00  0.17189866518E+03  0.17189866518E+03  0.00000000000E+00 0.  1.
       21   -1    0    0  501  503  0.00000000000E+00  0.00000000000E+00 -0.19868644518E+03  0.19868644518E+03  0.00000000000E+00 0.  1.
        6    2    1    2  501    0 -0.10857493118E+02  0.41457478209E+02  0.39840107161E+02  0.17959532488E+03  0.16979587428E+03 0.  0.
       24    2    3    3    0    0 -0.33012373302E+02  0.30790233582E+02  0.86500791944E+02  0.12664309804E+03  0.80735568369E+02 0.  0.
       -6    2    1    2    0  502  0.10857493118E+02 -0.41457478209E+02 -0.66627887157E+02  0.19098978548E+03  0.17378496815E+03 0.  0.
      -24    2    5    5    0    0 -0.30945970490E+02  0.16275896705E+02  0.75028741062E+01  0.88042556704E+02  0.80452723807E+02 0.  0.
        5    1    3    3  501    0  0.22154880185E+02  0.10667244626E+02 -0.46660684783E+02  0.52952226833E+02  0.46999998093E+01 0. -1.
       -5    1    5    5    0  502  0.41803463608E+02 -0.57733374914E+02 -0.74130761264E+02  0.10294722877E+03  0.46999998093E+01 0.  1.
       13    1    6    6    0    0 -0.50794759174E+02  0.26644148567E+02 -0.11703728891E+02  0.58540545627E+02  0.00000000000E+00 0. -1.
      -13    1    4    4    0    0 -0.13177586078E+02  0.21692322061E+02 -0.10315991934E+02  0.27397541876E+02  0.00000000000E+00 0.  1.
       14    1    4    4    0    0 -0.19834787224E+02  0.90979115213E+01  0.96816783879E+02  0.99245556167E+02  0.00000000000E+00 0. -1.
      -14    1    6    6    0    0  0.19848788684E+02 -0.10368251862E+02  0.19206602997E+02  0.29502011076E+02  0.00000000000E+00 0.  1.
</event>
<event>
12   0  0.9284400E-04  0.2471543E+03  0.7546771E-02  0.1115204E+00
       21   -1    0    0  501  502  0.00000000000E+00  0.00000000000E+00  0.11154460839E+04  0.11154460839E+04  0.00000000000E+00 0.  1.
       21   -1    0    0  502  503  0.00000000000E+00  0.00000000000E+00 -0.13156363149E+03  0.13156363149E+03  0.00000000000E+00 0. -1.
       -6    2    1    2    0  503 -0.20823429119E+01 -0.17687317927E+03  0.15412220436E+02  0.24763439356E+03  0.17261749227E+03 0.  0.
      -24    2    3    3    0    0  0.22760618372E+02 -0.18968353753E+03 -0.13753937937E+02  0.20696459154E+03  0.78404599244E+02 0.  0.
        6    2    1    2  501    0  0.20823429119E+01  0.17687317927E+03  0.96847023193E+03  0.99937532178E+03  0.17183709135E+03 0.  0.
       24    2    5    5    0    0  0.59226626116E+02  0.13991707961E+03  0.57981316406E+03  0.60477726197E+03  0.80545943249E+02 0.  0.
        5    1    5    5  501    0 -0.57144283204E+02  0.36956099655E+02  0.38865706787E+03  0.39459805981E+03  0.46999998093E+01 0. -1.
       -5    1    3    3    0  503 -0.24842961284E+02  0.12810358261E+02  0.29166158373E+02  0.40669802022E+02  0.46999998093E+01 0.  1.
       13    1    4    4    0    0 -0.18560665199E+02 -0.54281885756E+02 -0.29530332835E+02  0.64521794544E+02  0.00000000000E+00 0. -1.
      -13    1    6    6    0    0  0.53183343381E+02  0.55122311747E+02  0.37982362226E+03  0.38746989728E+03  0.00000000000E+00 0.  1.
       14    1    6    6    0    0  0.60432827345E+01  0.84794767866E+02  0.19998954179E+03  0.21730736470E+03  0.00000000000E+00 0. -1.
      -14    1    4    4    0    0  0.41321283571E+02 -0.13540165177E+03  0.15776394899E+02  0.14244279699E+03  0.00000000000E+00 0.  1.
</event>
<event>
12   0  0.9284400E-04  0.2315610E+03  0.7546771E-02  0.1125746E+00
       21   -1    0    0  501  502  0.00000000000E+00  0.00000000000E+00  0.73867130236E+03  0.73867130236E+03  0.00000000000E+00 0.  1.
       21   -1    0    0  502  503  0.00000000000E+00  0.00000000000E+00 -0.85062847657E+02  0.85062847657E+02  0.00000000000E+00 0.  1.
       -6    2    1    2    0  503 -0.13573616848E+03  0.69680724697E+02  0.16752866370E+03  0.28580823141E+03  0.17418605327E+03 0.  0.
      -24    2    3    3    0    0 -0.12098021692E+03  0.45502702006E+02  0.19419302806E+03  0.24662413753E+03  0.80036393529E+02 0.  0.
        6    2    1    2  501    0  0.13573616848E+03 -0.69680724697E+02  0.48607979101E+03  0.53792591861E+03  0.17265868022E+03 0.  0.
       24    2    5    5    0    0  0.99168950125E+01  0.60918865791E+01  0.19867103732E+03  0.21512898570E+03  0.81699715617E+02 0.  0.
        5    1    5    5  501    0  0.12581927347E+03 -0.75772611276E+02  0.28740875369E+03  0.32279693290E+03  0.46999998093E+01 0. -1.
       -5    1    3    3    0  503 -0.14755951565E+02  0.24178022690E+02 -0.26664364368E+02  0.39184093880E+02  0.46999998093E+01 0.  1.
       13    1    4    4    0    0 -0.12210167447E+03  0.30350777634E+02  0.13101555111E+03  0.18164543276E+03  0.00000000000E+00 0. -1.
      -13    1    6    6    0    0  0.98836276048E+01 -0.35180618706E+02  0.12972515286E+03  0.13477380053E+03  0.00000000000E+00 0.  1.
       14    1    6    6    0    0  0.33267407747E-01  0.41272505285E+02  0.68945884462E+02  0.80355185168E+02  0.00000000000E+00 0. -1.
      -14    1    4    4    0    0  0.11214575495E+01  0.15151924372E+02  0.63177476955E+02  0.64978704770E+02  0.00000000000E+00 0.  1.
</event>
<event>
12   0  0.9284400E-04  0.2178980E+03  0.7546771E-02  0.1135460E+00
        1   -1    0    0  502    0  0.00000000000E+00  0.00000000000E+00  0.12281771159E+04  0.12281771159E+04  0.00000000000E+00 0.  1.
       -1   -1    0    0    0  501  0.00000000000E+00  0.00000000000E+00 -0.12944818581E+03  0.12944818581E+03  0.00000000000E+00 0. -1.
        6    2    1    2  502    0  0.10529786310E+03  0.81313637181E+02 -0.19151412452E+02  0.21869900952E+03  0.17251936877E+03 0.  0.
       24    2    3    3    0    0  0.70976072125E+02 -0.16688855588E+02 -0.31838550425E+02  0.11398259537E+03  0.81622411371E+02 0.  0.
       -6    2    1    2    0  501 -0.10529786310E+03 -0.81313637181E+02  0.11178803425E+04  0.11389262922E+04  0.17261833980E+03 0.  0.
      -24    2    5    5    0    0 -0.11349097523E+03 -0.11133474288E+03  0.10379446208E+04  0.10530181815E+04  0.79010305010E+02 0.  0.
        5    1    3    3  502    0  0.34321790973E+02  0.98002492769E+02  0.12687137972E+02  0.10471641415E+03  0.46999998093E+01 0. -1.
       -5    1    5    5    0  501  0.81931121302E+01  0.30021105694E+02  0.79935721762E+02  0.85908110707E+02  0.46999998093E+01 0.  1.
       13    1    6    6    0    0 -0.52731607529E+02 -0.83494800416E+01  0.22031757211E+03  0.22669399822E+03  0.00000000000E+00 0. -1.
      -13    1    4    4    0    0  0.26333821191E+02 -0.10664582990E+02  0.27460998505E+02  0.39513414277E+02  0.00000000000E+00 0.  1.
       14    1    4    4    0    0  0.44642250934E+02 -0.60242725975E+01 -0.59299548930E+02  0.74469181089E+02  0.00000000000E+00 0. -1.
      -14    1    6    6    0    0 -0.60759367699E+02 -0.10298526283E+03  0.81762704866E+03  0.82632418325E+03  0.00000000000E+00 0.  1.
</event>
<event>
12   0  0.9284400E-04  0.2171931E+03  0.7546771E-02  0.1136082E+00
       21   -1    0    0  503  502  0.00000000000E+00  0.00000000000E+00  0.59027695848E+03  0.59027695848E+03  0.00000000000E+00 0.  1.
       21   -1    0    0  501  503  0.00000000000E+00  0.00000000000E+00 -0.15229664028E+03  0.15229664028E+03  0.00000000000E+00 0. -1.
        6    2    1    2  501    0 -0.21492203678E+02  0.12985417242E+03 -0.37150797557E+02  0.22034749602E+03  0.17276809986E+03 0.  0.
       24    2    3    3    0    0 -0.30632860007E+02  0.15634882054E+03 -0.58919634808E+01  0.17810151771E+03  0.79385827330E+02 0.  0.
       -6    2    1    2    0  502  0.21492203678E+02 -0.12985417242E+03  0.47513111576E+03  0.52222610273E+03  0.17218160269E+03 0.  0.
      -24    2    5    5    0    0  0.52372394892E+02 -0.10453843214E+03  0.23800051940E+03  0.28171106653E+03  0.95109022854E+02 0.  0.
        5    1    3    3  501    0  0.91406563294E+01 -0.26494648122E+02 -0.31258834076E+02  0.42245978309E+02  0.46999998093E+01 0. -1.
       -5    1    5    5    0  502 -0.30880191214E+02 -0.25315740274E+02  0.23713059635E+03  0.24051503620E+03  0.46999998093E+01 0.  1.
       13    1    6    6    0    0 -0.19691784199E+02 -0.40318788076E+02  0.12655756359E+03  0.13427653532E+03  0.00000000000E+00 0. -1.
      -13    1    4    4    0    0  0.14060672638E+02  0.45688555416E+01 -0.13044594052E+02  0.19716449730E+02  0.00000000000E+00 0.  1.
       14    1    4    4    0    0 -0.44693532645E+02  0.15177996500E+03  0.71526305709E+01  0.15838506798E+03  0.00000000000E+00 0. -1.
      -14    1    6    6    0    0  0.72064179091E+02 -0.64219644066E+02  0.11144295582E+03  0.14743453121E+03  0.00000000000E+00 0.  1.
</event>
<event>
12   0  0.9284400E-04  0.3845717E+03  0.7546771E-02  0.1049257E+00
       -2   -1    0    0    0  501  0.00000000000E+00  0.00000000000E+00  0.73898177267E+03  0.73898177267E+03  0.00000000000E+00 0.  1.
        2   -1    0    0  502    0  0.00000000000E+00  0.00000000000E+00 -0.20951368739E+03  0.20951368739E+03  0.00000000000E+00 0. -1.
        6    2    1    2  502    0  0.16721578187E+03  0.30321100040E+03  0.16256529146E+03  0.41488827099E+03  0.16064487215E+03 0.  0.
       24    2    3    3    0    0  0.15120339321E+03  0.23663377185E+03  0.18243502650E+03  0.34343324793E+03  0.76196120567E+02 0.  0.
       -6    2    1    2    0  501 -0.16721578187E+03 -0.30321100040E+03  0.36690279382E+03  0.53360718907E+03  0.17384172008E+03 0.  0.
      -24    2    5    5    0    0 -0.14953029427E+02 -0.77584417725E+02  0.77340157536E+02  0.13616548149E+03  0.79477062219E+02 0.  0.
        5    1    3    3  502    0  0.16012388663E+02  0.66577228549E+02 -0.19869735043E+02  0.71455023062E+02  0.46999998093E+01 0. -1.
       -5    1    5    5    0  501 -0.15226275245E+03 -0.22562658267E+03  0.28956263629E+03  0.39744170758E+03  0.46999998093E+01 0.  1.
       13    1    6    6    0    0 -0.26581885873E+02 -0.71664192295E+02  0.89935971886E+02  0.11802894625E+03  0.00000000000E+00 0. -1.
      -13    1    4    4    0    0  0.33910752853E+02  0.10428387506E+02  0.14878419170E+02  0.38471519102E+02  0.00000000000E+00 0.  1.
       14    1    4    4    0    0  0.11729264036E+03  0.22620538434E+03  0.16755660733E+03  0.30496172883E+03  0.00000000000E+00 0. -1.
      -14    1    6    6    0    0  0.11628856446E+02 -0.59202254297E+01 -0.12595814349E+02  0.18136535240E+02  0.00000000000E+00 0.  1.
</event>
<event>
12   0  0.9284400E-04  0.1828554E+03  0.7546771E-02  0.1166149E+00
       21   -1    0    0  501  502  0.00000000000E+00  0.00000000000E+00  0.52215297385E+03  0.52215297385E+03  0.00000000000E+00 0. -1.
       21   -1    0    0  502  503  0.00000000000E+00  0.00000000000E+00 -0.62570745161E+02  0.62570745161E+02  0.00000000000E+00 0. -1.
       -6    2    1    2    0  503 -0.27315790685E+02 -0.34632157886E+02  0.23871824363E+03  0.29798867931E+03  0.17281583949E+03 0.  0.
      -24    2    3    3    0    0  0.27895817018E+02 -0.65451112248E+02  0.10159255023E+03  0.14691361399E+03  0.78743501398E+02 0.  0.
        6    2    1    2  501    0  0.27315790685E+02  0.34632157886E+02  0.22086398507E+03  0.28673503970E+03  0.17745575311E+03 0.  0.
       24    2    5    5    0    0  0.49580442308E+01  0.13942338141E+02  0.21803543207E+02  0.85302453016E+02  0.81130407362E+02 0.  0.
        5    1    5    5  501    0  0.22357746454E+02  0.20689819745E+02  0.19906044186E+03  0.20143258669E+03  0.46999998093E+01 0. -1.
       -5    1    3    3    0  503 -0.55211607704E+02  0.30818954362E+02  0.13712569340E+03  0.15107506532E+03  0.46999998093E+01 0.  1.
       13    1    4    4    0    0  0.15408432286E+02 -0.40504405375E+02  0.18853973305E+01  0.43377198658E+02  0.00000000000E+00 0. -1.
      -13    1    6    6    0    0  0.82282245461E+01  0.42615359248E+02 -0.76451649248E+01  0.44070637275E+02  0.00000000000E+00 0.  1.
       14    1    6    6    0    0 -0.32701803153E+01 -0.28673021108E+02  0.29448708132E+02  0.41231815742E+02  0.00000000000E+00 0. -1.
      -14    1    4    4    0    0  0.12487384733E+02 -0.24946706873E+02  0.99707152895E+02  0.10353641533E+03  0.00000000000E+00 0.  1.
</event>
<event>
12   0  0.9284400E-04  0.2537231E+03  0.7546771E-02  0.1111101E+00
       21   -1    0    0  501  502  0.00000000000E+00  0.00000000000E+00  0.49318091151E+03  0.49318091151E+03  0.00000000000E+00 0. -1.
       21   -1    0    0  502  503  0.00000000000E+00  0.00000000000E+00 -0.87707371926E+03  0.87707371926E+03  0.00000000000E+00 0. -1.
       -6    2    1    2    0  503  0.42446125988E+02 -0.18108786802E+03 -0.82417082305E+03  0.86210095114E+03  0.17136515056E+03 0.  0.
      -24    2    3    3    0    0  0.35802939439E+02 -0.17811205118E+03 -0.82861604006E+03  0.85236250332E+03  0.83135684182E+02 0.  0.
        6    2    1    2  501    0 -0.42446125988E+02  0.18108786802E+03  0.44027801530E+03  0.50815367963E+03  0.17257155561E+03 0.  0.
       24    2    5    5    0    0  0.75989670535E+01  0.17975693411E+03  0.30090036256E+03  0.35998316028E+03  0.81710145230E+02 0.  0.
        5    1    5    5  501    0 -0.50045093042E+02  0.13309339085E+01  0.13937765274E+03  0.14817051935E+03  0.46999998093E+01 0. -1.
       -5    1    3    3    0  503  0.66431865496E+01 -0.29758168435E+01  0.44452170044E+01  0.97384478148E+01  0.46999998093E+01 0.  1.
       13    1    4    4    0    0  0.46267964102E+02 -0.69492005170E+02 -0.25073278886E+03  0.26426652208E+03  0.00000000000E+00 0. -1.
      -13    1    6    6    0    0  0.40194985791E+02  0.59099986645E+02  0.91304750993E+02  0.11595258884E+03  0.00000000000E+00 0.  1.
       14    1    6    6    0    0 -0.32596018738E+02  0.12065694747E+03  0.20959561157E+03  0.24403057144E+03  0.00000000000E+00 0. -1.
      -14    1    4    4    0    0 -0.10465024664E+02 -0.10862004601E+03 -0.57788325120E+03  0.58809598124E+03  0.00000000000E+00 0.  1.
</event>
<event>
12   0  0.9284400E-04  0.1959888E+03  0.7546771E-02  0.1153229E+00
       21   -1    0    0  501  502  0.00000000000E+00  0.00000000000E+00  0.49614912946E+03  0.49614912946E+03  0.00000000000E+00 0.  1.
       21   -1    0    0  502  503  0.00000000000E+00  0.00000000000E+00 -0.79307713491E+02  0.79307713491E+02  0.00000000000E+00 0.  1.
       -6    2    1    2    0  503 -0.44813966602E+02 -0.78238929791E+02  0.25396346520E+03  0.32062188488E+03  0.17369896278E+03 0.  0.
      -24    2    3    3    0    0 -0.54618895969E+02 -0.29423819655E+02  0.55205800183E+02  0.11566883899E+03  0.80514687976E+02 0.  0.
        6    2    1    2  501    0  0.44813966602E+02  0.78238929791E+02  0.16287795077E+03  0.25483495807E+03  0.17401726142E+03 0.  0.
       24    2    5    5    0    0 -0.62583509948E+01  0.72784450731E+02  0.17171498961E+03  0.20250603471E+03  0.78650576681E+02 0.  0.
        5    1    5    5  501    0  0.51072317597E+02  0.54544790600E+01 -0.88370388389E+01  0.52328923362E+02  0.46999998093E+01 0. -1.
       -5    1    3    3    0  503  0.98049293671E+01 -0.48815110136E+02  0.19875766502E+03  0.20495304589E+03  0.46999998093E+01 0.  1.
       13    1    4    4    0    0 -0.19270065618E+02  0.10963624104E+02  0.57828478753E+02  0.61932781604E+02  0.00000000000E+00 0. -1.
      -13    1    6    6    0    0  0.62138434648E+01  0.16357748337E+02 -0.36412360151E+01  0.17873062999E+02  0.00000000000E+00 0.  1.
       14    1    6    6    0    0 -0.12472194460E+02  0.56426702394E+02  0.17535622562E+03  0.18463297171E+03  0.00000000000E+00 0. -1.
      -14    1    4    4    0    0 -0.35348830352E+02 -0.40387443760E+02 -0.26226785700E+01  0.53736057387E+02  0.00000000000E+00 0.  1.
</event>
<event>
12   0  0.9284400E-04  0.1902632E+03  0.7546771E-02  0.1158224E+00
       -2   -1    0    0    0  501  0.00000000000E+00  0.00000000000E+00  0.38605503614E+02  0.38605503614E+02  0.00000000000E+00 0.  1.
        2   -1    0    0  502    0  0.00000000000E+00  0.00000000000E+00 -0.98139087240E+03  0.98139087240E+03  0.00000000000E+00 0. -1.
        6    2    1    2  502    0 -0.45939031668E+02 -0.63728917509E+02 -0.58081830604E+03  0.61142878913E+03  0.17413641200E+03 0.  0.
       24    2    3    3    0    0 -0.92030425623E+02 -0.73514249553E+02 -0.43618957238E+03  0.45924557744E+03  0.82287381907E+02 0.  0.
       -6    2    1    2    0  501  0.45939031668E+02  0.63728917509E+02 -0.36196706275E+03  0.40856758689E+03  0.17243998662E+03 0.  0.
      -24    2    5    5    0    0  0.82404115109E+02  0.21197045163E+02 -0.15445209649E+03  0.19357174113E+03  0.79842444490E+02 0.  0.
        5    1    3    3  502    0  0.46091393955E+02  0.97853320436E+01 -0.14462873366E+03  0.15218321169E+03  0.46999998093E+01 0. -1.
       -5    1    5    5    0  501 -0.36465083441E+02  0.42531872346E+02 -0.20751496626E+03  0.21499584576E+03  0.46999998093E+01 0.  1.
       13    1    6    6    0    0  0.52160770349E+01 -0.16711328259E+02 -0.73195677631E+02  0.75260103479E+02  0.00000000000E+00 0. -1.
      -13    1    4    4    0    0 -0.14261222639E+02 -0.63722093818E+02 -0.19688022610E+03  0.20742639933E+03  0.00000000000E+00 0.  1.
       14    1    4    4    0    0 -0.77769202985E+02 -0.97921557349E+01 -0.23930934628E+03  0.25181917811E+03  0.00000000000E+00 0. -1.
      -14    1    6    6    0    0  0.77188038074E+02  0.37908373422E+02 -0.81256418862E+02  0.11831163765E+03  0.00000000000E+00 0.  1.
</event>
<event>
12   0  0.9284400E-04  0.2369948E+03  0.7546771E-02  0.1121861E+00
       21   -1    0    0  503  502  0.00000000000E+00  0.00000000000E+00  0.68337716160E+03  0.68337716160E+03  0.00000000000E+00 0.  1.
       21   -1    0    0  501  503  0.00000000000E+00  0.00000000000E+00 -0.10107147701E+03  0.10107147701E+03  0.00000000000E+00 0. -1.
        6    2    1    2  501    0  0.87005623550E+02 -0.13689944539E+03  0.12102518727E+03  0.26584837158E+03  0.17238568396E+03 0.  0.
       24    2    3    3    0    0 -0.18862219358E+02 -0.69453770389E+02  0.33405809512E+02  0.11269431647E+03  0.80027815877E+02 0.  0.
       -6    2    1    2    0  502 -0.87005623550E+02  0.13689944539E+03  0.46128049732E+03  0.51860026704E+03  0.17278629311E+03 0.  0.
      -24    2    5    5    0    0 -0.92380184726E+02  0.10182651512E+03  0.20373386482E+03  0.25857843285E+03  0.80327956210E+02 0.  0.
        5    1    3    3  501    0  0.10586784291E+03 -0.67445675006E+02  0.87619377762E+02  0.15315405511E+03  0.46999998093E+01 0. -1.
       -5    1    5    5    0  502  0.53745611763E+01  0.35072930275E+02  0.25754663249E+03  0.26002183419E+03  0.46999998093E+01 0.  1.
       13    1    6    6    0    0 -0.21362555307E+02  0.69624195917E+02  0.14023047846E+03  0.15801415923E+03  0.00000000000E+00 0. -1.
      -13    1    4    4    0    0  0.16730573110E+02  0.10432907570E+02  0.10258302941E+02  0.22225895171E+02  0.00000000000E+00 0.  1.
       14    1    4    4    0    0 -0.35592792468E+02 -0.79886677959E+02  0.23147506571E+02  0.90468421294E+02  0.00000000000E+00 0. -1.
      -14    1    6    6    0    0 -0.71017629420E+02  0.32202319202E+02  0.63503386359E+02  0.10056427362E+03  0.00000000000E+00 0.  1.
</event>
<event>
12   0  0.9284400E-04  0.2734940E+03  0.7546771E-02  0.1099347E+00
       21   -1    0    0  503  502  0.00000000000E+00  0.00000000000E+00  0.28737376545E+03  0.28737376545E+03  0.00000000000E+00 0.  1.
       21   -1    0    0  501  503  0.00000000000E+00  0.00000000000E+00 -0.26050213468E+03  0.26050213468E+03  0.00000000000E+00 0. -1.
        6    2    1    2  501    0 -0.16408009192E+03 -0.13442505653E+03  0.74890633246E+00  0.27349501645E+03  0.17264585361E+03 0.  0.
       24    2    3    3    0    0 -0.45434866173E+02 -0.85005682320E+02  0.57791930661E+02  0.13280045094E+03  0.70751391707E+02 0.  0.
       -6    2    1    2    0  502  0.16408009192E+03  0.13442505653E+03  0.26122724436E+02  0.27438088368E+03  0.17207585597E+03 0.  0.
      -24    2    5    5    0    0  0.15132644449E+03  0.76317933704E+02 -0.29030164555E+02  0.19312188782E+03  0.87915830733E+02 0.  0.
        5    1    3    3  501    0 -0.11864522575E+03 -0.49419374212E+02 -0.57043024328E+02  0.14069456551E+03  0.46999998093E+01 0. -1.
       -5    1    5    5    0  502  0.12753647433E+02  0.58107122828E+02  0.55152888990E+02  0.81258995861E+02  0.46999998093E+01 0.  1.
       13    1    6    6    0    0 -0.11697114495E+02  0.79063176440E+01 -0.27380212219E+01  0.14381554381E+02  0.00000000000E+00 0. -1.
      -13    1    4    4    0    0 -0.44372060187E+02 -0.17878789433E+02  0.64249500310E+01  0.48268113903E+02  0.00000000000E+00 0.  1.
       14    1    4    4    0    0 -0.10628059859E+01 -0.67126892887E+02  0.51366980630E+02  0.84532337033E+02  0.00000000000E+00 0. -1.
      -14    1    6    6    0    0  0.16302355899E+03  0.68411616060E+02 -0.26292143333E+02  0.17874033344E+03  0.00000000000E+00 0.  1.
</event>
<event>
12   0  0.9284400E-04  0.1760462E+03  0.7546771E-02  0.1172908E+00
       21   -1    0    0  503  502  0.00000000000E+00  0.00000000000E+00  0.54566599894E+03  0.54566599894E+03  0.00000000000E+00 0. -1.
       21   -1    0    0  501  503  0.00000000000E+00  0.00000000000E+00 -0.55352268151E+02  0.55352268151E+02  0.00000000000E+00 0. -1.
        6    2    1    2  501    0 -0.47908194637E+01 -0.33711425136E+02  0.22866072800E+03  0.28565410152E+03  0.16778893006E+03 0.  0.
       24    2    3    3    0    0 -0.32677899353E+02 -0.59265037403E+02  0.79218208341E+02  0.13142753764E+03  0.80109196440E+02 0.  0.
       -6    2    1    2    0  502  0.47908194637E+01  0.33711425136E+02  0.26165300278E+03  0.31536416557E+03  0.17272188895E+03 0.  0.
      -24    2    5    5    0    0 -0.21170404907E+02 -0.43326614512E+02  0.15297625130E+03  0.17956441949E+03  0.80723390137E+02 0.  0.
        5    1    3    3  501    0  0.27887079890E+02  0.25553612267E+02  0.14944251966E+03  0.15422656388E+03  0.46999998093E+01 0. -1.
       -5    1    5    5    0  502  0.25961224370E+02  0.77038039648E+02  0.10867675148E+03  0.13579974607E+03  0.46999998093E+01 0.  1.
       13    1    6    6    0    0 -0.49766204462E+02 -0.23155167687E+02  0.11772810182E+03  0.12989512252E+03  0.00000000000E+00 0. -1.
      -13    1    4    4    0    0 -0.22940797420E+02  0.10598333664E+02 -0.11357952256E+00  0.25270887658E+02  0.00000000000E+00 0.  1.
       14    1    4    4    0    0 -0.97371019332E+01 -0.69863371067E+02  0.79331787863E+02  0.10615664999E+03  0.00000000000E+00 0. -1.
      -14    1    6    6    0    0  0.28595799556E+02 -0.20171446824E+02  0.35248149484E+02  0.49669296968E+02  0.00000000000E+00 0.  1.
</event>
<event>
12   0  0.9284400E-04  0.1789624E+03  0.7546771E-02  0.1168860E+00
       21   -1    0    0  503  502  0.00000000000E+00  0.00000000000E+00  0.13741581693E+03  0.13741581693E+03  0.00000000000E+00 0. -1.
       21   -1    0    0  501  503  0.00000000000E+00  0.00000000000E+00 -0.67582195367E+03  0.67582195367E+03  0.00000000000E+00 0. -1.
        6    2    1    2  501    0 -0.14984749562E+02  0.46467936957E+02 -0.59847148626E+03  0.62465642439E+03  0.17217350776E+03 0.  0.
       24    2    3    3    0    0 -0.55634299879E+02  0.29867048493E+02 -0.20932096909E+03  0.23300838028E+03  0.80563150830E+02 0.  0.
       -6    2    1    2    0  502  0.14984749562E+02 -0.46467936957E+02  0.60065349521E+02  0.18858134622E+03  0.17196297871E+03 0.  0.
      -24    2    5    5    0    0 -0.12419752197E+02 -0.82102756747E+02  0.79212220672E+02  0.13949428305E+03  0.79303002395E+02 0.  0.
        5    1    3    3  501    0  0.40649550317E+02  0.16600888464E+02 -0.38915051717E+03  0.39164804410E+03  0.46999998093E+01 0. -1.
       -5    1    5    5    0  502  0.27404501759E+02  0.35634819790E+02 -0.19146871152E+02  0.49087063176E+02  0.46999998093E+01 0.  1.
       13    1    6    6    0    0  0.32706437613E+02 -0.23800098756E+02  0.21120286390E+02  0.45631373630E+02  0.00000000000E+00 0. -1.
      -13    1    4    4    0    0  0.59159609005E+01 -0.16740038979E+02 -0.12862929559E+02  0.21924471607E+02  0.00000000000E+00 0.  1.
       14    1    4    4    0    0 -0.61550260780E+02  0.46607087472E+02 -0.19645803953E+03  0.21108390868E+03  0.00000000000E+00 0. -1.
      -14    1    6    6    0    0 -0.45126189810E+02 -0.58302657992E+02  0.58091934282E+02  0.93862909418E+02  0.00000000000E+00 0.  1.
</event>
<event>
12   0  0.9284400E-04  0.1971179E+03  0.7546771E-02  0.1152194E+00
        2   -1    0    0  502    0  0.00000000000E+00  0.00000000000E+00  0.98646039865E+03  0.98646039865E+03  0.00000000000E+00 0. -1.
       -2   -1    0    0    0  501  0.00000000000E+00  0.00000000000E+00 -0.39389012227E+02  0.39389012227E+02  0.00000000000E+00 0.  1.
        6    2    1    2  502    0 -0.71327079045E+02 -0.60277228875E+02  0.47478938219E+03  0.51408008636E+03  0.17358709983E+03 0.  0.
       24    2    3    3    0    0 -0.90472670511E+02 -0.91584072082E+02  0.34484339702E+03  0.37897005282E+03  0.90157562617E+02 0.  0.
       -6    2    1    2    0  501  0.71327079045E+02  0.60277228875E+02  0.47228200424E+03  0.51176932452E+03  0.17359911712E+03 0.  0.
      -24    2    5    5    0    0  0.51816524257E+02  0.38569230609E+02  0.47136186429E+03  0.48219170472E+03  0.78449316481E+02 0.  0.
        5    1    3    3  502    0  0.19145591466E+02  0.31306843207E+02  0.12994598517E+03  0.13511003355E+03  0.46999998093E+01 0. -1.
       -5    1    5    5    0  501  0.19510554788E+02  0.21707998266E+02  0.92013994048E+00  0.29577619793E+02  0.46999998093E+01 0.  1.
       13    1    6    6    0    0  0.60689857915E+02  0.55161158657E+02  0.35756088660E+03  0.36684574402E+03  0.00000000000E+00 0. -1.
      -13    1    4    4    0    0 -0.17037926337E+02  0.38004389940E+01  0.45899067722E+01  0.18049972704E+02  0.00000000000E+00 0.  1.
       14    1    4    4    0    0 -0.73434744174E+02 -0.95384511076E+02  0.34025349024E+03  0.36092008011E+03  0.00000000000E+00 0. -1.
      -14    1    6    6    0    0 -0.88733336587E+01 -0.16591928048E+02  0.11380097769E+03  0.11534596070E+03  0.00000000000E+00 0.  1.
</event>
<event>
12   0  0.9284400E-04  0.1943580E+03  0.7546771E-02  0.1154827E+00
       21   -1    0    0  503  502  0.00000000000E+00  0.00000000000E+00  0.16443664262E+03  0.16443664262E+03  0.00000000000E+00 0.  1.
       21   -1    0    0  501  503  0.00000000000E+00  0.00000000000E+00 -0.45772074069E+03  0.45772074069E+03  0.00000000000E+00 0.  1.
        6    2    1    2  501    0 -0.88333729697E+02 -0.34913036486E+01 -0.36660339984E+03  0.41442982733E+03  0.17186911300E+03 0.  0.
       24    2    3    3    0    0 -0.98639262621E+02 -0.52163867496E+02 -0.30913420733E+03  0.33827196125E+03  0.80082385216E+02 0.  0.
       -6    2    1    2    0  502  0.88333729697E+02  0.34913036486E+01  0.73319301768E+02  0.20772755598E+03  0.17308951585E+03 0.  0.
      -24    2    5    5    0    0  0.44884302915E+02 -0.11426800117E+02  0.11348718589E+03  0.14652337785E+03  0.80278181877E+02 0.  0.
        5    1    3    3  501    0  0.10305532924E+02  0.48672563847E+02 -0.57469192506E+02  0.76157866080E+02  0.46999998093E+01 0. -1.
       -5    1    5    5    0  502  0.43449426782E+02  0.14918103766E+02 -0.40167884123E+02  0.61204178132E+02  0.46999998093E+01 0.  1.
       13    1    6    6    0    0 -0.74445104727E+01  0.24960004374E+02  0.50996574581E+02  0.57263192135E+02  0.00000000000E+00 0. -1.
      -13    1    4    4    0    0 -0.86858641719E+02 -0.11299168741E+02 -0.15146640688E+03  0.17496904661E+03  0.00000000000E+00 0.  1.
       14    1    4    4    0    0 -0.11780620902E+02 -0.40864698755E+02 -0.15766780045E+03  0.16330291464E+03  0.00000000000E+00 0. -1.
      -14    1    6    6    0    0  0.52328813388E+02 -0.36386804491E+02  0.62490611310E+02  0.89260185713E+02  0.00000000000E+00 0.  1.
</event>
<event>
12   0  0.9284400E-04  0.2161117E+03  0.7546771E-02  0.1136944E+00
       21   -1    0    0  503  502  0.00000000000E+00  0.00000000000E+00  0.25124393907E+03  0.25124393907E+03  0.00000000000E+00 0. -1.
       21   -1    0    0  501  503  0.00000000000E+00  0.00000000000E+00 -0.21508827466E+03  0.21508827466E+03  0.00000000000E+00 0. -1.
        6    2    1    2  501    0  0.12173053618E+03  0.43847133847E+02 -0.68700686404E+02  0.22612575545E+03  0.17225614179E+03 0.  0.
       24    2    3    3    0    0  0.61347583060E+02 -0.19717431182E+02  0.15607383769E+02  0.10440272703E+03  0.80647603456E+02 0.  0.
       -6    2    1    2    0  502 -0.12173053618E+03 -0.43847133847E+02  0.10485635081E+03  0.24020645827E+03  0.17309937523E+03 0.  0.
      -24    2    5    5    0    0 -0.14717409685E+03 -0.15145119946E+02  0.55280339960E+02  0.17734907023E+03  0.80667138793E+02 0.  0.
        5    1    3    3  501    0  0.60382953117E+02  0.63564565028E+02 -0.84308070173E+02  0.12172302842E+03  0.46999998093E+01 0. -1.
       -5    1    5    5    0  502  0.25443560676E+02 -0.28702013900E+02  0.49576010854E+02  0.62857388048E+02  0.46999998093E+01 0.  1.
       13    1    6    6    0    0 -0.95926421245E+02 -0.46601321262E+02  0.47389525310E+02  0.11670187893E+03  0.00000000000E+00 0. -1.
      -13    1    4    4    0    0  0.57864250376E+02  0.13920025319E+02  0.31161960109E+02  0.67179657146E+02  0.00000000000E+00 0.  1.
       14    1    4    4    0    0  0.34833326840E+01 -0.33637456501E+02 -0.15554576339E+02  0.37223069883E+02  0.00000000000E+00 0. -1.
      -14    1    6    6    0    0 -0.51247675608E+02  0.31456201315E+02  0.78908146499E+01  0.60647191298E+02  0.00000000000E+00 0.  1.
</event>
<event>
12   0  0.9284400E-04  0.1775253E+03  0.7546771E-02  0.1170879E+00
       21   -1    0    0  503  502  0.00000000000E+00  0.00000000000E+00  0.20251002741E+03  0.20251002741E+03  0.00000000000E+00 0.  1.
       21   -1    0    0  501  503  0.00000000000E+00  0.00000000000E+00 -0.15379213673E+03  0.15379213673E+03  0.00000000000E+00 0.  1.
        6    2    1    2  501    0 -0.55361721557E+01 -0.35880217062E+02  0.34198313495E+02  0.17818412732E+03  0.17106144921E+03 0.  0.
       24    2    3    3    0    0 -0.28962517370E+02 -0.44340116073E+02  0.82549389875E+02  0.12359218536E+03  0.75204741931E+02 0.  0.
       -6    2    1    2    0  502  0.55361721557E+01  0.35880217062E+02  0.14519577189E+02  0.17811803681E+03  0.17377335163E+03 0.  0.
      -24    2    5    5    0    0  0.44027012540E+02  0.50408433828E+02  0.55528114620E+02  0.11983936133E+03  0.82454308415E+02 0.  0.
        5    1    3    3  501    0  0.23426345214E+02  0.84598990110E+01 -0.48351076379E+02  0.54591941957E+02  0.46999998093E+01 0. -1.
       -5    1    5    5    0  502 -0.38490840384E+02 -0.14528216765E+02 -0.41008537431E+02  0.58278675485E+02  0.46999998093E+01 0.  1.
       13    1    6    6    0    0  0.63725045438E+02  0.16662903861E+02  0.25791755307E+02  0.70737178506E+02  0.00000000000E+00 0. -1.
      -13    1    4    4    0    0  0.41373288438E+01 -0.46063236967E+02  0.77236322040E+02  0.90024378544E+02  0.00000000000E+00 0.  1.
       14    1    4    4    0    0 -0.33099846214E+02  0.17231208941E+01  0.53130678342E+01  0.33567806821E+02  0.00000000000E+00 0. -1.
      -14    1    6    6    0    0 -0.19698032898E+02  0.33745529966E+02  0.29736359313E+02  0.49102182823E+02  0.00000000000E+00 0.  1.
</event>
<event>
12   0  0.9284400E-04  0.1756034E+03  0.7546771E-02  0.1172127E+00
        1   -1    0    0  502    0  0.00000000000E+00  0.00000000000E+00  0.31699726945E+03  0.31699726945E+03  0.00000000000E+00 0.  1.
       -1   -1    0    0    0  501  0.00000000000E+00  0.00000000000E+00 -0.12462094958E+03  0.12462094958E+03  0.00000000000E+00 0. -1.
        6    2    1    2  502    0 -0.54455294495E+01 -0.32473555303E+02 -0.66947890427E+01  0.17699014526E+03  0.17377141806E+03 0.  0.
       24    2    3    3    0    0  0.18945791033E+02  0.42586819295E+02  0.17994063229E+02  0.94161250696E+02  0.79812120920E+02 0.  0.
       -6    2    1    2    0  501  0.54455294495E+01  0.32473555303E+02  0.19907110891E+03  0.26462807378E+03  0.17121485170E+03 0.  0.
      -24    2    5    5    0    0 -0.40659263914E+02  0.34226436868E+02  0.50449638877E+02  0.10893878090E+03  0.80609349319E+02 0.  0.
        5    1    3    3  502    0 -0.24391320483E+02 -0.75060374598E+02 -0.24688852271E+02  0.82828894562E+02  0.46999998093E+01 0. -1.
       -5    1    5    5    0  501  0.46104793364E+02 -0.17528815642E+01  0.14862147003E+03  0.15568929288E+03  0.46999998093E+01 0.  1.
       13    1    6    6    0    0 -0.16014728360E+02  0.34552795568E+02 -0.13498692889E+02  0.40405221392E+02  0.00000000000E+00 0. -1.
      -13    1    4    4    0    0  0.30072065642E+02 -0.14978543555E+02  0.35909042159E+01  0.33787282993E+02  0.00000000000E+00 0.  1.
       14    1    4    4    0    0 -0.11126274609E+02  0.57565362849E+02  0.14403159013E+02  0.60373967703E+02  0.00000000000E+00 0. -1.
      -14    1    6    6    0    0 -0.24644535554E+02 -0.32635870034E+00  0.63948331767E+02  0.68533559505E+02  0.00000000000E+00 0.  1.
</event>
<event>
12   0  0.9284400E-04  0.2586424E+03  0.7546771E-02  0.1108273E+00
       21   -1    0    0  501  502  0.00000000000E+00  0.00000000000E+00  0.27192181256E+03  0.27192181256E+03  0.00000000000E+00 0. -1.
       21   -1    0    0  502  503  0.00000000000E+00  0.00000000000E+00 -0.46327013119E+03  0.46327013119E+03  0.00000000000E+00 0. -1.
       -6    2    1    2    0  503  0.15350535165E+03 -0.11481969878E+03 -0.34833170463E+03  0.43263670792E+03  0.17056403015E+03 0.  0.
      -24    2    3    3    0    0  0.12245714431E+03 -0.14283735848E+03 -0.32586136154E+03  0.38492940501E+03  0.81158836406E+02 0.  0.
        6    2    1    2  501    0 -0.15350535165E+03  0.11481969878E+03  0.15698338599E+03  0.30255523583E+03  0.17363303556E+03 0.  0.
       24    2    5    5    0    0 -0.77201604632E+02 -0.95846206147E+01  0.61513218564E+02  0.12809796496E+03  0.81075642819E+02 0.  0.
        5    1    5    5  501    0 -0.76303747016E+02  0.12440431940E+03  0.95470167424E+02  0.17445727087E+03  0.46999998093E+01 0. -1.
       -5    1    3    3    0  503  0.31048207343E+02  0.28017659701E+02 -0.22470343082E+02  0.47707302908E+02  0.46999998093E+01 0.  1.
       13    1    4    4    0    0  0.96774567542E+02 -0.53264160856E+02 -0.19778754072E+03  0.22654425399E+03  0.00000000000E+00 0. -1.
      -13    1    6    6    0    0  0.12045533397E+02  0.10346522319E+02 -0.30342518589E+01  0.16166387453E+02  0.00000000000E+00 0.  1.
       14    1    6    6    0    0 -0.89247138030E+02 -0.19931142934E+02  0.64547470423E+02  0.11193157751E+03  0.00000000000E+00 0. -1.
      -14    1    4    4    0    0  0.25682576764E+02 -0.89573197627E+02 -0.12807382083E+03  0.15838515102E+03  0.00000000000E+00 0.  1.
</event>
<event>
12   0  0.9284400E-04  0.2200641E+03  0.7546771E-02  0.1133897E+00
       21   -1    0    0  503  502  0.00000000000E+00  0.00000000000E+00  0.43424883583E+03  0.43424883583E+03  0.00000000000E+00 0. -1.
       21   -1    0    0  501  503  0.00000000000E+00  0.00000000000E+00 -0.20739806477E+03  0.20739806477E+03  0.00000000000E+00 0.  1.
        6    2    1    2  501    0  0.13078969685E+03 -0.34274991335E+02 -0.10494199784E+03  0.24350794360E+03  0.17321251645E+03 0.  0.
       24    2    3    3    0    0  0.94991933497E+02 -0.84458702990E+02 -0.10106638214E+03  0.18156445991E+03  0.81206524145E+02 0.  0.
       -6    2    1    2    0  502 -0.13078969685E+03  0.34274991335E+02  0.33179276890E+03  0.39813895700E+03  0.17363026162E+03 0.  0.
      -24    2    5    5    0    0 -0.43462406294E+02  0.77269979168E+02  0.15768847318E+03  0.19861697715E+03  0.81996454791E+02 0.  0.
        5    1    3    3  501    0  0.35797763350E+02  0.50183711656E+02 -0.38756156984E+01  0.61943483690E+02  0.46999998093E+01 0. -1.
       -5    1    5    5    0  502 -0.87327290552E+02 -0.42994987833E+02  0.17410429572E+03  0.19952197985E+03  0.46999998093E+01 0.  1.
       13    1    6    6    0    0 -0.61957913367E+02  0.55691482490E+02  0.14556575927E+03  0.16771915371E+03  0.00000000000E+00 0. -1.
      -13    1    4    4    0    0  0.24283419218E+02 -0.26206477890E+02 -0.79919722715E+02  0.87542138489E+02  0.00000000000E+00 0.  1.
       14    1    4    4    0    0  0.70708514279E+02 -0.58252225100E+02 -0.21146659422E+02  0.94022321421E+02  0.00000000000E+00 0. -1.
      -14    1    6    6    0    0  0.18495507073E+02  0.21578496678E+02  0.12122713911E+02  0.30897823440E+02  0.00000000000E+00 0.  1.
</event>
<event>
12   0  0.9284400E-04  0.2060115E+03  0.7546771E-02  0.1145389E+00
       21   -1    0    0  501  502  0.00000000000E+00  0.00000000000E+00  0.12466224471E+04  0.12466224471E+04  0.00000000000E+00 0.  1.
       21   -1    0    0  502  503  0.00000000000E+00  0.00000000000E+00 -0.34629295134E+02  0.34629295134E+02  0.00000000000E+00 0. -1.
       -6    2    1    2    0  503  0.87512930025E+02  0.67955810605E+02  0.49684167825E+03  0.53785906602E+03  0.17367848611E+03 0.  0.
      -24    2    3    3    0    0  0.10413844967E+03  0.10234389846E+03  0.38104104746E+03  0.41583109963E+03  0.80025829097E+02 0.  0.
        6    2    1    2  501    0 -0.87512930025E+02 -0.67955810605E+02  0.71515147373E+03  0.74339267622E+03  0.17004274631E+03 0.  0.
       24    2    5    5    0    0 -0.98144931118E+02  0.62129945158E+01  0.46721846819E+03  0.48434264953E+03  0.81385971305E+02 0.  0.
        5    1    5    5  501    0  0.10632001093E+02 -0.74168805121E+02  0.24793300553E+03  0.25905002670E+03  0.46999998093E+01 0. -1.
       -5    1    3    3    0  503 -0.16625519650E+02 -0.34388087859E+02  0.11580063080E+03  0.12202796639E+03  0.46999998093E+01 0.  1.
       13    1    4    4    0    0 -0.99153233942E+01  0.23686357605E+02  0.88335210225E+02  0.91991665602E+02  0.00000000000E+00 0. -1.
      -13    1    6    6    0    0 -0.63905253523E+02 -0.17703913768E+02  0.39810226381E+03  0.40358731700E+03  0.00000000000E+00 0.  1.
       14    1    6    6    0    0 -0.34239677595E+02  0.23916908283E+02  0.69116204383E+02  0.80755332530E+02  0.00000000000E+00 0. -1.
      -14    1    4    4    0    0  0.11405377307E+03  0.78657540859E+02  0.29270583723E+03  0.32383943403E+03  0.00000000000E+00 0.  1.
</event>
<event>
12   0  0.9284400E-04  0.2228845E+03  0.7546771E-02  0.1131751E+00
        2   -1    0    0  502    0  0.00000000000E+00  0.00000000000E+00  0.12715361197E+03  0.12715361197E+03  0.00000000000E+00 0.  1.
       -2   -1    0    0    0  501  0.00000000000E+00  0.00000000000E+00 -0.39931219597E+03  0.39931219597E+03  0.00000000000E+00 0. -1.
        6    2    1    2  502    0  0.14031491167E+03  0.35652394633E+01 -0.17454822411E+03  0.28281866247E+03  0.17267984230E+03 0.  0.
       24    2    3    3    0    0  0.79605873590E+02  0.60513433524E+02 -0.14723072285E+03  0.19508600046E+03  0.79891745994E+02 0.  0.
       -6    2    1    2    0  501 -0.14031491167E+03 -0.35652394633E+01 -0.97610359888E+02  0.24364714546E+03  0.17359482644E+03 0.  0.
      -24    2    5    5    0    0 -0.48550642159E+02  0.46133320725E+02 -0.91475576202E+01  0.10675892308E+03  0.82633780696E+02 0.  0.
        5    1    3    3  502    0  0.60709038075E+02 -0.56948194060E+02 -0.27317501264E+02  0.87732662015E+02  0.46999998093E+01 0. -1.
       -5    1    5    5    0  501 -0.91764269506E+02 -0.49698560188E+02 -0.88462802267E+02  0.13688822238E+03  0.46999998093E+01 0.  1.
       13    1    6    6    0    0 -0.64491884263E+02  0.31915546790E+02 -0.29015694605E+02  0.77586827465E+02  0.00000000000E+00 0. -1.
      -13    1    4    4    0    0  0.71385037235E+02  0.40031264558E+02 -0.51171186660E+02  0.96523655274E+02  0.00000000000E+00 0.  1.
       14    1    4    4    0    0  0.82208363546E+01  0.20482168966E+02 -0.96059536187E+02  0.98562345185E+02  0.00000000000E+00 0. -1.
      -14    1    6    6    0    0  0.15941242104E+02  0.14217773935E+02  0.19868136985E+02  0.29172095617E+02  0.00000000000E+00 0.  1.
</event>
<event>
12   0  0.9284400E-04  0.1728676E+03  0.7546771E-02  0.1175774E+00
       21   -1    0    0  503  502  0.00000000000E+00  0.00000000000E+00  0.26209784200E+03  0.26209784200E+03  0.00000000000E+00 0.  1.
       21   -1    0    0  501  503  0.00000000000E+00  0.00000000000E+00 -0.27878961600E+03  0.27878961600E+03  0.00000000000E+00 0.  1.
        6    2    1    2  501    0  0.57849541292E+01 -0.19283469285E+01 -0.21763710992E+03  0.27581717975E+03  0.16932814537E+03 0.  0.
       24    2    3    3    0    0 -0.23017482595E+00  0.16327017845E+02 -0.23522435168E+03  0.24934377441E+03  0.81087592918E+02 0.  0.
       -6    2    1    2    0  502 -0.57849541292E+01  0.19283469285E+01  0.20094533591E+03  0.26507027825E+03  0.17276006533E+03 0.  0.
      -24    2    5    5    0    0  0.41763774681E+02 -0.35160913154E+02  0.66981594370E+02  0.11808433038E+03  0.80479018434E+02 0.  0.
        5    1    3    3  501    0  0.60151289552E+01 -0.18255364773E+02  0.17587241757E+02  0.26473405338E+02  0.46999998093E+01 0. -1.
       -5    1    5    5    0  502 -0.47548728810E+02  0.37089260082E+02  0.13396374154E+03  0.14698594787E+03  0.46999998093E+01 0.  1.
       13    1    6    6    0    0  0.48416576051E+02  0.23408114035E+01  0.63431015048E+02  0.79831935367E+02  0.00000000000E+00 0. -1.
      -13    1    4    4    0    0  0.28478692675E+02  0.34907654308E+02 -0.16780769468E+03  0.17374982780E+03  0.00000000000E+00 0.  1.
       14    1    4    4    0    0 -0.28708867501E+02 -0.18580636463E+02 -0.67416656998E+02  0.75593946618E+02  0.00000000000E+00 0. -1.
      -14    1    6    6    0    0 -0.66528013707E+01 -0.37501724557E+02  0.35505793228E+01  0.38252395015E+02  0.00000000000E+00 0.  1.
</event>
<event>
12   0  0.9284400E-04  0.4077801E+03  0.7546771E-02  0.1041212E+00
       21   -1    0    0  501  502  0.00000000000E+00  0.00000000000E+00  0.15682045227E+04  0.15682045227E+04  0.00000000000E+00 0.  1.
       21   -1    0    0  502  503  0.00000000000E+00  0.00000000000E+00 -0.16173595311E+03  0.16173595311E+03  0.00000000000E+00 0. -1.
       -6    2    1    2    0  503 -0.28945011512E+03  0.22821403762E+03  0.19369856724E+03  0.45045006004E+03  0.17182289002E+03 0.  0.
      -24    2    3    3    0    0 -0.19503417059E+03  0.14568261325E+03  0.20017776522E+03  0.32479228435E+03  0.78467437681E+02 0.  0.
        6    2    1    2  501    0  0.28945011512E+03 -0.22821403762E+03  0.12127700023E+04  0.12794904157E+04  0.17441797297E+03 0.  0.
       24    2    5    5    0    0  0.26992967066E+03 -0.14337863868E+03  0.86440500862E+03  0.92038269999E+03  0.80553301514E+02 0.  0.
        5    1    5    5  501    0  0.19520444463E+02 -0.84835398939E+02  0.34836499372E+03  0.35910771575E+03  0.46999998093E+01 0. -1.
       -5    1    3    3    0  503 -0.94415944529E+02  0.82531424362E+02 -0.64791979897E+01  0.12565777570E+03  0.46999998093E+01 0.  1.
       13    1    4    4    0    0 -0.18432663114E+03  0.13606578782E+03  0.15307485817E+03  0.27553968456E+03  0.00000000000E+00 0. -1.
      -13    1    6    6    0    0  0.26265245147E+03 -0.15121694952E+03  0.80793987819E+03  0.86291350833E+03  0.00000000000E+00 0.  1.
       14    1    6    6    0    0  0.72772191854E+01  0.78383108392E+01  0.56465130432E+02  0.57469191664E+02  0.00000000000E+00 0. -1.
      -14    1    4    4    0    0 -0.10707539452E+02  0.96168254323E+01  0.47102907057E+02  0.49252599787E+02  0.00000000000E+00 0.  1.
</event>
<event>
12   0  0.9284400E-04  0.1793028E+03  0.7546771E-02  0.1169352E+00
       21   -1    0    0  501  502  0.00000000000E+00  0.00000000000E+00  0.69052238088E+03  0.69052238088E+03  0.00000000000E+00 0.  1.
       21   -1    0    0  502  503  0.00000000000E+00  0.00000000000E+00 -0.45688028852E+02  0.45688028852E+02  0.00000000000E+00 0.  1.
       -6    2    1    2    0  503 -0.23699473304E+02 -0.27176089761E+02  0.30745798448E+03  0.35414716976E+03  0.17201628045E+03 0.  0.
      -24    2    3    3    0    0  0.40373205854E+02  0.94195020938E+01  0.22729809494E+03  0.24509560651E+03  0.81784531532E+02 0.  0.
        6    2    1    2  501    0  0.23699473304E+02  0.27176089761E+02  0.33737636754E+03  0.38206323997E+03  0.17563969104E+03 0.  0.
       24    2    5    5    0    0  0.21193047422E+02  0.23818830607E+02  0.63070191606E+02  0.10768481240E+03  0.81250771083E+02 0.  0.
        5    1    5    5  501    0  0.25064258823E+01  0.33572591544E+01  0.27430617594E+03  0.27437842757E+03  0.46999998093E+01 0. -1.
       -5    1    3    3    0  503 -0.64072679158E+02 -0.36595591855E+02  0.80159889547E+02  0.10905156325E+03  0.46999998093E+01 0.  1.
       13    1    4    4    0    0 -0.15312424825E+01 -0.31810140692E+02  0.98391052582E+02  0.10341677322E+03  0.00000000000E+00 0. -1.
      -13    1    6    6    0    0  0.27083692363E+02 -0.24851795355E+01 -0.10636781334E+02  0.29203486547E+02  0.00000000000E+00 0.  1.
       14    1    6    6    0    0 -0.58906449418E+01  0.26304010142E+02  0.73706972940E+02  0.78481325851E+02  0.00000000000E+00 0. -1.
      -14    1    4    4    0    0  0.41904448337E+02  0.41229642786E+02  0.12890704235E+03  0.14167883329E+03  0.00000000000E+00 0.  1.
</event>
<event>
11   0  0.9284400E-04  0.2170418E+03  0.7546771E-02  0.1141503E+00
       21   -1    0    0  503  502  0.00000000000E+00  0.00000000000E+00  0.35769104945E+03  0.35769104945E+03  0.00000000000E+00 0.  1.
       21   -1    0    0  501  503  0.00000000000E+00  0.00000000000E+00 -0.14036823994E+03  0.14036823994E+03  0.00000000000E+00 0.  1.
       24    2    1    2    0    0  0.52584908765E+02  0.71637191059E+02 -0.25430978007E+02  0.12222592710E+03  0.79971137547E+02 0.  0.
       -6    2    1    2    0  502 -0.25312436647E+02 -0.12889624026E+03  0.21790655549E+03  0.30755553728E+03  0.17277783823E+03 0.  0.
      -24    2    4    4    0    0 -0.67695776569E+02 -0.13692971149E+03  0.16380903449E+03  0.23820486360E+03  0.81090648110E+02 0.  0.
        5    1    1    2  501    0 -0.27272472118E+02  0.57259049199E+02  0.24847232016E+02  0.68277825007E+02  0.46999998093E+01 0. -1.
       -5    1    4    4    0  502  0.42383339922E+02  0.80334712277E+01  0.54097521003E+02  0.69350673679E+02  0.46999998093E+01 0.  1.
       13    1    5    5    0    0 -0.64536729717E+02 -0.43734849767E+02  0.91482528113E+02  0.12019475661E+03  0.00000000000E+00 0. -1.
      -13    1    3    3    0    0  0.51970592070E+02  0.87799902394E+02 -0.15374585184E+02  0.10318014911E+03  0.00000000000E+00 0.  1.
       14    1    3    3    0    0  0.61431669480E+00 -0.16162711335E+02 -0.10056392823E+02  0.19045777992E+02  0.00000000000E+00 0. -1.
      -14    1    5    5    0    0 -0.31590468521E+01 -0.93194861719E+02  0.72326506379E+02  0.11801010699E+03  0.00000000000E+00 0.  1.
</event>
<event>
12   0  0.9284400E-04  0.1913707E+03  0.7546771E-02  0.1158433E+00
       21   -1    0    0  501  502  0.00000000000E+00  0.00000000000E+00  0.91960569109E+03  0.91960569109E+03  0.00000000000E+00 0. -1.
       21   -1    0    0  502  503  0.00000000000E+00  0.00000000000E+00 -0.38762624413E+02  0.38762624413E+02  0.00000000000E+00 0. -1.
        6    2    1    2  501    0 -0.81116207019E+02  0.30828120293E+01  0.44833602228E+03  0.48541472425E+03  0.16743035232E+03 0.  0.
       24    2    3    3    0    0 -0.91963995372E+02 -0.48697900237E+02  0.28680224523E+03  0.31537305935E+03  0.79848461262E+02 0.  0.
       -6    2    1    2    0  503  0.81116207019E+02 -0.30828120293E+01  0.43250704439E+03  0.47295359125E+03  0.17330150966E+03 0.  0.
      -24    2    5    5    0    0  0.10646291422E+03  0.37185791127E+02  0.36607947166E+03  0.39110783153E+03  0.78955817699E+02 0.  0.
        5    1    3    3  501    0  0.10847788352E+02  0.51780712266E+02  0.16153377705E+03  0.17004166490E+03  0.46999998093E+01 0. -1.
       -5    1    5    5    0  503 -0.25346707197E+02 -0.40268603156E+02  0.66427572732E+02  0.81845759714E+02  0.46999998093E+01 0.  1.
       13    1    6    6    0    0  0.43400498018E+02  0.47995312475E+02  0.25338656839E+03  0.26151846262E+03  0.00000000000E+00 0. -1.
      -13    1    4    4    0    0 -0.30294012874E+02 -0.61147263077E+02  0.14706486919E+03  0.16212584849E+03  0.00000000000E+00 0.  1.
       14    1    4    4    0    0 -0.61669982497E+02  0.12449362840E+02  0.13973737604E+03  0.15324721086E+03  0.00000000000E+00 0. -1.
      -14    1    6    6    0    0  0.63062416199E+02 -0.10809521348E+02  0.11269290327E+03  0.12958936891E+03  0.00000000000E+00 0.  1.
</event>
<event>
12   0  0.9284400E-04  0.2180148E+03  0.7546771E-02  0.1138085E+00
       21   -1    0    0  503  502  0.00000000000E+00  0.00000000000E+00  0.76216084448E+03  0.76216084448E+03  0.00000000000E+00 0. -1.
       21   -1    0    0  501  503  0.00000000000E+00  0.00000000000E+00 -0.58599575806E+02  0.58599575806E+02  0.00000000000E+00 0. -1.
        6    2    1    2  501    0  0.71305106428E+02 -0.82770358166E+02  0.31976006533E+03  0.37936058771E+03  0.17243145227E+03 0.  0.
       24    2    3    3    0    0  0.26203966572E+02 -0.10173032591E+03  0.29713313091E+03  0.32525271995E+03  0.80408502540E+02 0.  0.
       -6    2    1    2    0  502 -0.71305106428E+02  0.82770358166E+02  0.38380120334E+03  0.44139983258E+03  0.18866663223E+03 0.  0.
      -24    2    5    5    0    0 -0.58108833832E+01  0.11196428463E+03  0.30560337567E+03  0.33519828435E+03  0.79966863224E+02 0.  0.
        5    1    3    3  501    0  0.45101139856E+02  0.18959967746E+02  0.22626934423E+02  0.54107867753E+02  0.46999998093E+01 0. -1.
       -5    1    5    5    0  502 -0.65494223045E+02 -0.29193926461E+02  0.78197827671E+02  0.10620154822E+03  0.46999998093E+01 0.  1.
       13    1    6    6    0    0 -0.26173976209E+02  0.96235902079E+02  0.28588470648E+03  0.30278125979E+03  0.00000000000E+00 0. -1.
      -13    1    4    4    0    0  0.14237599499E+02 -0.40603246497E+02  0.22872040764E+03  0.23273237363E+03  0.00000000000E+00 0.  1.
       14    1    4    4    0    0  0.11966367073E+02 -0.61127079415E+02  0.68412723267E+02  0.92520346322E+02  0.00000000000E+00 0. -1.
      -14    1    6    6    0    0  0.20363092826E+02  0.15728382549E+02  0.19718669192E+02  0.32417024566E+02  0.00000000000E+00 0.  1.
</event>
<event>
12   0  0.9284400E-04  0.1915256E+03  0.7546771E-02  0.1159317E+00
       21   -1    0    0  503  502  0.00000000000E+00  0.00000000000E+00  0.17472483343E+03  0.17472483343E+03  0.00000000000E+00 0.  1.
       21   -1    0    0  501  503  0.00000000000E+00  0.00000000000E+00 -0.25166413343E+03  0.25166413343E+03  0.00000000000E+00 0.  1.
        6    2    1    2  501    0 -0.39981696244E+02 -0.66177728429E+02 -0.13634573165E+03  0.23510044644E+03  0.17522566479E+03 0.  0.
       24    2    3    3    0    0  0.36240859114E+02 -0.13342382427E+02 -0.76419211493E+02  0.12458017884E+03  0.90492574485E+02 0.  0.
       -6    2    1    2    0  502  0.39981696244E+02  0.66177728429E+02  0.59406431651E+02  0.19128852042E+03  0.16457261664E+03 0.  0.
      -24    2    5    5    0    0  0.77578765935E+02  0.69303225798E+01  0.35416737216E+02  0.11698246288E+03  0.79775040280E+02 0.  0.
        5    1    3    3  501    0 -0.76222555358E+02 -0.52835346002E+02 -0.59926520159E+02  0.11052026759E+03  0.46999998093E+01 0. -1.
       -5    1    5    5    0  502 -0.37597069691E+02  0.59247405849E+02  0.23989694435E+02  0.74306057536E+02  0.46999998093E+01 0.  1.
       13    1    6    6    0    0  0.19283443458E+02  0.11890445323E+02 -0.24410355928E+02  0.33303143367E+02  0.00000000000E+00 0. -1.
      -13    1    4    4    0    0  0.43772239576E+00  0.15299757902E+02 -0.77220718371E+02  0.78723017844E+02  0.00000000000E+00 0.  1.
       14    1    4    4    0    0  0.35803136718E+02 -0.28642140329E+02  0.80150687818E+00  0.45857160998E+02  0.00000000000E+00 0. -1.
      -14    1    6    6    0    0  0.58295322478E+02 -0.49601227429E+01  0.59827093144E+02  0.83679319515E+02  0.00000000000E+00 0.  1.
</event>
<event>
12   0  0.9284400E-04  0.1733635E+03  0.7546771E-02  0.1174943E+00
       21   -1    0    0  501  502  0.00000000000E+00  0.00000000000E+00  0.43003594516E+03  0.43003594516E+03  0.00000000000E+00 0. -1.
       21   -1    0    0  502  503  0.00000000000E+00  0.00000000000E+00 -0.82636510170E+02  0.82636510170E+02  0.00000000000E+00 0. -1.
       -6    2    1    2    0  503  0.12443290510E+02 -0.13120781489E+02  0.68698943046E+02  0.18445171816E+03  0.17022309236E+03 0.  0.
      -24    2    3    3    0    0  0.62620275005E+01 -0.20773683676E+02  0.11145100486E+03  0.14033138598E+03  0.82467038775E+02 0.  0.
        6    2    1    2  501    0 -0.12443290510E+02  0.13120781489E+02  0.27870049194E+03  0.32822073717E+03  0.17241779987E+03 0.  0.
       24    2    5    5    0    0  0.27878492198E+02  0.59879180567E+02  0.13656379299E+03  0.17318162844E+03  0.83543283891E+02 0.  0.
        5    1    5    5  501    0 -0.40321782708E+02 -0.46758399079E+02  0.14213669896E+03  0.15503910873E+03  0.46999998093E+01 0. -1.
       -5    1    3    3    0  503  0.61812630093E+01  0.76529021874E+01 -0.42752061815E+02  0.44120332183E+02  0.46999998093E+01 0.  1.
       13    1    4    4    0    0 -0.96919426155E+01 -0.44661883065E+02  0.98967972841E+02  0.10901044537E+03  0.00000000000E+00 0. -1.
      -13    1    6    6    0    0  0.50140606583E+02  0.13205578350E+02  0.48168957751E+02  0.70772284256E+02  0.00000000000E+00 0.  1.
       14    1    6    6    0    0 -0.22262114385E+02  0.46673602217E+02  0.88394835234E+02  0.10240934419E+03  0.00000000000E+00 0. -1.
      -14    1    4    4    0    0  0.15953970116E+02  0.23888199389E+02  0.12483032020E+02  0.31320940613E+02  0.00000000000E+00 0.  1.
</event>
<event>
12   0  0.9284400E-04  0.1825561E+03  0.7546771E-02  0.1165558E+00
       21   -1    0    0  503  502  0.00000000000E+00  0.00000000000E+00  0.15884753788E+03  0.15884753788E+03  0.00000000000E+00 0. -1.
       21   -1    0    0  501  503  0.00000000000E+00  0.00000000000E+00 -0.23818972449E+03  0.23818972449E+03  0.00000000000E+00 0. -1.
        6    2    1    2  501    0 -0.52230936326E+02  0.26659107316E+02  0.29964901552E+02  0.18499897523E+03  0.17288130841E+03 0.  0.
       24    2    3    3    0    0  0.24721469561E+02 -0.14144054598E+02  0.25703242640E+02  0.97667294099E+02  0.89816692862E+02 0.  0.
       -6    2    1    2    0  502  0.52230936326E+02 -0.26659107316E+02 -0.10930708816E+03  0.21203828714E+03  0.17196923266E+03 0.  0.
      -24    2    5    5    0    0  0.47216537653E+02 -0.36698497100E+02 -0.14406517473E+03  0.17521237070E+03  0.79802375642E+02 0.  0.
        5    1    3    3  501    0 -0.76952405887E+02  0.40803161914E+02  0.42616589122E+01  0.87331681129E+02  0.46999998093E+01 0. -1.
       -5    1    5    5    0  502  0.50143986733E+01  0.10039389783E+02  0.34758086577E+02  0.36825916444E+02  0.46999998093E+01 0.  1.
       13    1    6    6    0    0  0.41744324525E+02 -0.26812021723E+01 -0.19838675538E+02  0.46296333789E+02  0.00000000000E+00 0. -1.
      -13    1    4    4    0    0  0.11232539806E+02 -0.32965147990E+02 -0.24365372056E+02  0.42503438542E+02  0.00000000000E+00 0.  1.
       14    1    4    4    0    0  0.13488929754E+02  0.18821093392E+02  0.50068614696E+02  0.55163855557E+02  0.00000000000E+00 0. -1.
      -14    1    6    6    0    0  0.54722131278E+01 -0.34017294927E+02 -0.12422649920E+03  0.12891603691E+03  0.00000000000E+00 0.  1.
</event>
<event>
12   0  0.9284400E-04  0.2123645E+03  0.7546771E-02  0.1139712E+00
       21   -1    0    0  503  502  0.00000000000E+00  0.00000000000E+00  0.42507226854E+03  0.42507226854E+03  0.00000000000E+00 0. -1.
       21   -1    0    0  501  503  0.00000000000E+00  0.00000000000E+00 -0.13391593317E+03  0.13391593317E+03  0.00000000000E+00 0.  1.
        6    2    1    2  501    0 -0.11328751308E+03 -0.49238430023E+02  0.18152944266E+02  0.21311316817E+03  0.17271134720E+03 0.  0.
       24    2    3    3    0    0 -0.59026610023E+02  0.37785950612E+02  0.26081831447E+02  0.11014499020E+03  0.80868647689E+02 0.  0.
       -6    2    1    2    0  502  0.11328751308E+03  0.49238430023E+02  0.27300339110E+03  0.34587503354E+03  0.17274317255E+03 0.  0.
      -24    2    5    5    0    0  0.91499940376E+02  0.71314919320E+01  0.27220506649E+03  0.29822611036E+03  0.80125635172E+02 0.  0.
        5    1    3    3  501    0 -0.54260903056E+02 -0.87024380635E+02 -0.79288871804E+01  0.10296817797E+03  0.46999998093E+01 0. -1.
       -5    1    5    5    0  502  0.21787572703E+02  0.42106938091E+02  0.79832461095E+00  0.47648923178E+02  0.46999998093E+01 0.  1.
       13    1    6    6    0    0  0.24379711645E+02  0.36772955003E+02  0.14286966924E+03  0.14952713115E+03  0.00000000000E+00 0. -1.
      -13    1    4    4    0    0 -0.42004742024E+02 -0.85578771927E+01  0.40228208234E+02  0.58787280531E+02  0.00000000000E+00 0.  1.
       14    1    4    4    0    0 -0.17021868000E+02  0.46343827805E+02 -0.14146376787E+02  0.51357709665E+02  0.00000000000E+00 0. -1.
      -14    1    6    6    0    0  0.67120228731E+02 -0.29641463071E+02  0.12933539725E+03  0.14869897921E+03  0.00000000000E+00 0.  1.
</event>
<event>
12   0  0.9284400E-04  0.3069395E+03  0.7546771E-02  0.1081822E+00
        1   -1    0    0  502    0  0.00000000000E+00  0.00000000000E+00  0.10494237440E+04  0.10494237440E+04  0.00000000000E+00 0.  1.
       -1   -1    0    0    0  501  0.00000000000E+00  0.00000000000E+00 -0.10636867509E+03  0.10636867509E+03  0.00000000000E+00 0. -1.
        6    2    1    2  502    0  0.36827090957E+02 -0.25399932452E+03  0.23463920722E+03  0.38092299744E+03  0.15548273517E+03 0.  0.
       24    2    3    3    0    0  0.19382242725E+02 -0.52663919281E+02  0.65316203173E+02  0.11723257701E+03  0.79549424819E+02 0.  0.
       -6    2    1    2    0  501 -0.36827090957E+02  0.25399932452E+03  0.70841586168E+03  0.77486942164E+03  0.18082504258E+03 0.  0.
      -24    2    5    5    0    0 -0.89356364584E+02  0.13588551505E+03  0.47021037235E+03  0.50380828145E+03  0.79218413887E+02 0.  0.
        5    1    3    3  502    0  0.17444848233E+02 -0.20133540523E+03  0.16932300404E+03  0.26369042043E+03  0.46999998093E+01 0. -1.
       -5    1    5    5    0  501  0.52529273627E+02  0.11811380947E+03  0.23820548933E+03  0.27106114019E+03  0.46999998093E+01 0.  1.
       13    1    6    6    0    0  0.93368587673E+01  0.37251191111E+02  0.68166624505E+02  0.78240123129E+02  0.00000000000E+00 0. -1.
      -13    1    4    4    0    0  0.46472996096E+02 -0.22443334556E+02  0.54864025802E+02  0.75322665642E+02  0.00000000000E+00 0.  1.
       14    1    4    4    0    0 -0.27090753372E+02 -0.30220584725E+02  0.10452177371E+02  0.41909911372E+02  0.00000000000E+00 0. -1.
      -14    1    6    6    0    0 -0.98693223351E+02  0.98634323936E+02  0.40204374785E+03  0.42556815832E+03  0.00000000000E+00 0.  1.
</event>
<event>
12   0  0.9284400E-04  0.2170258E+03  0.7546771E-02  0.1136629E+00
       21   -1    0    0  501  502  0.00000000000E+00  0.00000000000E+00  0.95233691485E+02  0.95233691485E+02  0.00000000000E+00 0.  1.
       21   -1    0    0  502  503  0.00000000000E+00  0.00000000000E+00 -0.48855177139E+03  0.48855177139E+03  0.00000000000E+00 0.  1.
       -6    2    1    2    0  503 -0.12498993165E+03 -0.39046410313E+02 -0.19314146885E+03  0.28853835705E+03  0.16971638497E+03 0.  0.
      -24    2    3    3    0    0 -0.15568674114E+03 -0.38238363185E+02 -0.15875250855E+03  0.24219574554E+03  0.88067510464E+02 0.  0.
        6    2    1    2  501    0  0.12498993165E+03  0.39046410313E+02 -0.20017661106E+03  0.29524710583E+03  0.17306956033E+03 0.  0.
       24    2    5    5    0    0  0.76149113618E+02  0.59899011974E+01 -0.20785532172E+03  0.23558798334E+03  0.80394631075E+02 0.  0.
        5    1    5    5  501    0  0.48840818035E+02  0.33056509115E+02  0.76787106532E+01  0.59659122494E+02  0.46999998093E+01 0. -1.
       -5    1    3    3    0  503  0.30696809491E+02 -0.80804712797E+00 -0.34388960300E+02  0.46342611512E+02  0.46999998093E+01 0.  1.
       13    1    4    4    0    0 -0.58753336035E+02 -0.26266732190E+02 -0.11318931232E+02  0.65345343518E+02  0.00000000000E+00 0. -1.
      -13    1    6    6    0    0  0.69247826314E+02  0.30265931328E+02 -0.19054350061E+03  0.20498320339E+03  0.00000000000E+00 0.  1.
       14    1    6    6    0    0  0.69012873038E+01 -0.24276030131E+02 -0.17311821104E+02  0.30604779942E+02  0.00000000000E+00 0. -1.
      -14    1    4    4    0    0 -0.96933405108E+02 -0.11971630995E+02 -0.14743357731E+03  0.17685040202E+03  0.00000000000E+00 0.  1.
</event>
<event>
12   0  0.9284400E-04  0.1774987E+03  0.7546771E-02  0.1170589E+00
       21   -1    0    0  503  502  0.00000000000E+00  0.00000000000E+00  0.10841030695E+03  0.10841030695E+03  0.00000000000E+00 0. -1.
       21   -1    0    0  501  503  0.00000000000E+00  0.00000000000E+00 -0.49926066163E+03  0.49926066163E+03  0.00000000000E+00 0. -1.
        6    2    1    2  501    0  0.12669373020E+02  0.38888012272E+02 -0.39334581582E+03  0.43153993989E+03  0.17272231582E+03 0.  0.
       24    2    3    3    0    0  0.64166249892E+02  0.27946190818E+02 -0.14861573656E+03  0.18116711094E+03  0.76397563608E+02 0.  0.
       -6    2    1    2    0  502 -0.12669373020E+02 -0.38888012272E+02  0.24954611435E+01  0.17613102869E+03  0.17129834041E+03 0.  0.
      -24    2    5    5    0    0  0.28704178277E+02  0.76212788688E+01  0.47363821087E+02  0.99253563641E+02  0.82011734559E+02 0.  0.
        5    1    3    3  501    0 -0.51496876872E+02  0.10941821455E+02 -0.24473007926E+03  0.25037282895E+03  0.46999998093E+01 0. -1.
       -5    1    5    5    0  502 -0.41373551298E+02 -0.46509291141E+02 -0.44868359944E+02  0.76877465045E+02  0.46999998093E+01 0.  1.
       13    1    6    6    0    0 -0.84183448411E+00  0.27478359228E+02  0.56209594415E+02  0.62572257554E+02  0.00000000000E+00 0. -1.
      -13    1    4    4    0    0  0.71329004394E+02 -0.32541349810E+01 -0.97379623780E+02  0.12075267032E+03  0.00000000000E+00 0.  1.
       14    1    4    4    0    0 -0.71627545010E+01  0.31200325799E+02 -0.51236112781E+02  0.60414440616E+02  0.00000000000E+00 0. -1.
      -14    1    6    6    0    0  0.29546012761E+02 -0.19857080359E+02 -0.88457733279E+01  0.36681306087E+02  0.00000000000E+00 0.  1.
</event>
<event>
12   0  0.9284400E-04  0.2250029E+03  0.7546771E-02  0.1130349E+00
       21   -1    0    0  501  502  0.00000000000E+00  0.00000000000E+00  0.24394638379E+03  0.24394638379E+03  0.00000000000E+00 0. -1.
       21   -1    0    0  502  503  0.00000000000E+00  0.00000000000E+00 -0.22451469201E+03  0.22451469201E+03  0.00000000000E+00 0. -1.
       -6    2    1    2    0  503  0.70410726309E+02 -0.12597300521E+03 -0.56046723395E+02  0.23187829011E+03  0.17262513664E+03 0.  0.
      -24    2    3    3    0    0  0.77511973250E+02 -0.13746064368E+02 -0.38455147869E+02  0.11796223555E+03  0.78988798799E+02 0.  0.
        6    2    1    2  501    0 -0.70410726309E+02  0.12597300521E+03  0.75478415172E+02  0.23658278569E+03  0.17160289888E+03 0.  0.
       24    2    5    5    0    0 -0.16211149840E+02  0.98860373616E+02 -0.13948118310E+02  0.12845377122E+03  0.79181099292E+02 0.  0.
        5    1    5    5  501    0 -0.54199576469E+02  0.27112631598E+02  0.89426533482E+02  0.10812901447E+03  0.46999998093E+01 0. -1.
       -5    1    3    3    0  503 -0.71012469408E+01 -0.11222694085E+03 -0.17591575526E+02  0.11391605456E+03  0.46999998093E+01 0.  1.
       13    1    4    4    0    0  0.84905896532E+02 -0.32648419222E+02 -0.34464815453E+02  0.97276688100E+02  0.00000000000E+00 0. -1.
      -13    1    6    6    0    0 -0.12399997314E+02 -0.10185122756E+02  0.67278129593E+01  0.17400003625E+02  0.00000000000E+00 0.  1.
       14    1    6    6    0    0 -0.38111525264E+01  0.10904549637E+03 -0.20675931269E+02  0.11105376759E+03  0.00000000000E+00 0. -1.
      -14    1    4    4    0    0 -0.73939232819E+01  0.18902354854E+02 -0.39903324165E+01  0.20685547450E+02  0.00000000000E+00 0.  1.
</event>
<event>
12   0  0.9284400E-04  0.2095430E+03  0.7546771E-02  0.1142226E+00
       21   -1    0    0  501  502  0.00000000000E+00  0.00000000000E+00  0.42052559583E+03  0.42052559583E+03  0.00000000000E+00 0. -1.
       21   -1    0    0  502  503  0.00000000000E+00  0.00000000000E+00 -0.18104200895E+03  0.18104200895E+03  0.00000000000E+00 0. -1.
       -6    2    1    2    0  503  0.11385051030E+03  0.31905160151E+02 -0.76645886075E+02  0.22312069931E+03  0.17299819845E+03 0.  0.
      -24    2    3    3    0    0  0.78174576491E+02  0.58854138624E+02  0.98552128683E+01  0.12563454742E+03  0.78178259388E+02 0.  0.
        6    2    1    2  501    0 -0.11385051030E+03 -0.31905160151E+02  0.31612947295E+03  0.37844690548E+03  0.17118510056E+03 0.  0.
       24    2    5    5    0    0 -0.11679596761E+03  0.30889648078E+02  0.21360127211E+03  0.25808916528E+03  0.79931504300E+02 0.  0.
        5    1    5    5  501    0  0.29454573053E+01 -0.62794808229E+02  0.10252820084E+03  0.12035774020E+03  0.46999998093E+01 0. -1.
       -5    1    3    3    0  503  0.35675933813E+02 -0.26948978474E+02 -0.86501098943E+02  0.97486151892E+02  0.46999998093E+01 0.  1.
       13    1    4    4    0    0  0.42520691926E+02  0.24644124302E+02 -0.33843382884E+02  0.59671740962E+02  0.00000000000E+00 0. -1.
      -13    1    6    6    0    0 -0.74891029935E+02  0.62329575906E+01  0.57595567934E+02  0.94682445948E+02  0.00000000000E+00 0.  1.
       14    1    6    6    0    0 -0.41904937674E+02  0.24656690487E+02  0.15600570418E+03  0.16340671933E+03  0.00000000000E+00 0. -1.
      -14    1    4    4    0    0  0.35653884565E+02  0.34210014323E+02  0.43698595752E+02  0.65962806454E+02  0.00000000000E+00 0.  1.
</event>
<event>
12   0  0.9284400E-04  0.2046631E+03  0.7546771E-02  0.1147026E+00
       21   -1    0    0  503  502  0.00000000000E+00  0.00000000000E+00  0.11416884332E+03  0.11416884332E+03  0.00000000000E+00 0.  1.
       21   -1    0    0  501  503  0.00000000000E+00  0.00000000000E+00 -0.36940747231E+03  0.36940747231E+03  0.00000000000E+00 0.  1.
        6    2    1    2  501    0 -0.10702829799E+03 -0.38861979128E+01 -0.17034918495E+03  0.26200642450E+03  0.16780453678E+03 0.  0.
       24    2    3    3    0    0 -0.14013795337E+03  0.19161269401E+01 -0.15253614205E+03  0.22367483507E+03  0.84385067963E+02 0.  0.
       -6    2    1    2    0  502  0.10702829799E+03  0.38861979128E+01 -0.84889444043E+02  0.22156989112E+03  0.17440424260E+03 0.  0.
      -24    2    5    5    0    0  0.22782200794E+02 -0.53497078562E+02 -0.20329368429E+02  0.10082081794E+03  0.79815963455E+02 0.  0.
        5    1    3    3  501    0  0.33109655378E+02 -0.58023248529E+01 -0.17813042895E+02  0.38331589431E+02  0.46999998093E+01 0. -1.
       -5    1    5    5    0  502  0.84246097197E+02  0.57383276475E+02 -0.64560075614E+02  0.12074907318E+03  0.46999998093E+01 0.  1.
       13    1    6    6    0    0 -0.26134569916E+02 -0.24577663104E+01 -0.14239748625E+02  0.29863469337E+02  0.00000000000E+00 0. -1.
      -13    1    4    4    0    0 -0.29900324215E+02  0.93032001009E+01  0.45317314654E+01  0.31640409453E+02  0.00000000000E+00 0.  1.
       14    1    4    4    0    0 -0.11023762915E+03 -0.73870731608E+01 -0.15706787352E+03  0.19203442562E+03  0.00000000000E+00 0. -1.
      -14    1    6    6    0    0  0.48916770710E+02 -0.51039312252E+02 -0.60896198037E+01  0.70957348606E+02  0.00000000000E+00 0.  1.
</event>
<event>
12   0  0.9284400E-04  0.1984992E+03  0.7546771E-02  0.1151267E+00
       21   -1    0    0  501  502  0.00000000000E+00  0.00000000000E+00  0.17960948100E+03  0.17960948100E+03  0.00000000000E+00 0.  1.
       21   -1    0    0  502  503  0.00000000000E+00  0.00000000000E+00 -0.41123922267E+03  0.41123922267E+03  0.00000000000E+00 0.  1.
       -6    2    1    2    0  503 -0.92422616828E+02 -0.27935889138E+02 -0.31848002821E+03  0.37527517523E+03  0.17343464123E+03 0.  0.
      -24    2    3    3    0    0  0.17382854128E+02 -0.50326733522E+01 -0.16837394281E+03  0.18782991491E+03  0.81257620567E+02 0.  0.
        6    2    1    2  501    0  0.92422616828E+02  0.27935889138E+02  0.86850286538E+02  0.21557352843E+03  0.17206574292E+03 0.  0.
       24    2    5    5    0    0  0.25299396636E+02  0.58581898667E+02  0.95993130558E+02  0.14107261445E+03  0.81332054644E+02 0.  0.
        5    1    5    5  501    0  0.67123220192E+02 -0.30646009529E+02 -0.91428440198E+01  0.74500913981E+02  0.46999998093E+01 0. -1.
       -5    1    3    3    0  503 -0.10980547096E+03 -0.22903215786E+02 -0.15010608539E+03  0.18744526032E+03  0.46999998093E+01 0.  1.
       13    1    4    4    0    0 -0.44867177570E+01 -0.14291200258E+02  0.26099442315E+01  0.15204632516E+02  0.00000000000E+00 0. -1.
      -13    1    6    6    0    0  0.23738683854E+01 -0.20103185994E+02  0.28185817052E+02  0.34701781238E+02  0.00000000000E+00 0.  1.
       14    1    6    6    0    0  0.22925528251E+02  0.78685084661E+02  0.67807313506E+02  0.10637083321E+03  0.00000000000E+00 0. -1.
      -14    1    4    4    0    0  0.21869571885E+02  0.92585269061E+01 -0.17098388704E+03  0.17262528240E+03  0.00000000000E+00 0.  1.
</event>
<event>
12   0  0.9284400E-04  0.1777333E+03  0.7546771E-02  0.1170715E+00
       21   -1    0    0  503  502  0.00000000000E+00  0.00000000000E+00  0.20414046822E+03  0.20414046822E+03  0.00000000000E+00 0. -1.
       21   -1    0    0  501  503  0.00000000000E+00  0.00000000000E+00 -0.20084141218E+03  0.20084141218E+03  0.00000000000E+00 0. -1.
        6    2    1    2  501    0 -0.26821485055E+02 -0.32240581745E+02  0.10121092476E+03  0.20453065366E+03  0.17271447485E+03 0.  0.
       24    2    3    3    0    0  0.10171232095E+02 -0.76923218317E+02  0.92393462071E+02  0.14566778948E+03  0.81620570808E+02 0.  0.
       -6    2    1    2    0  502  0.26821485055E+02  0.32240581745E+02 -0.97911868709E+02  0.20045122674E+03  0.16980904892E+03 0.  0.
      -24    2    5    5    0    0  0.65332649118E+01 -0.30633421168E+02 -0.54252796180E+02  0.12112306824E+03  0.10366456349E+03 0.  0.
        5    1    3    3  501    0 -0.36992717150E+02  0.44682636572E+02  0.88174626845E+01  0.58862864181E+02  0.46999998093E+01 0. -1.
       -5    1    5    5    0  502  0.20288220143E+02  0.62874002913E+02 -0.43659072530E+02  0.79328158502E+02  0.46999998093E+01 0.  1.
       13    1    6    6    0    0  0.49871441529E+02 -0.98101776179E+01 -0.52407435620E+02  0.73006435150E+02  0.00000000000E+00 0. -1.
      -13    1    4    4    0    0  0.13326099963E+01  0.17170100772E+02  0.81051567696E+01  0.19033701064E+02  0.00000000000E+00 0.  1.
       14    1    4    4    0    0  0.88386220991E+01 -0.94093319089E+02  0.84288305302E+02  0.12663408841E+03  0.00000000000E+00 0. -1.
      -14    1    6    6    0    0 -0.43338176617E+02 -0.20823243550E+02 -0.18453605593E+01  0.48116633091E+02  0.00000000000E+00 0.  1.
</event>
<event>
12   0  0.9284400E-04  0.2317900E+03  0.7546771E-02  0.1125386E+00
       -1   -1    0    0    0  501  0.00000000000E+00  0.00000000000E+00  0.21555813433E+03  0.21555813433E+03  0.00000000000E+00 0. -1.
        1   -1    0    0  502    0  0.00000000000E+00  0.00000000000E+00 -0.27249925789E+03  0.27249925789E+03  0.00000000000E+00 0.  1.
        6    2    1    2  502    0  0.63175413208E+02  0.13932500902E+03 -0.99668196241E+02  0.25160779678E+03  0.17311886981E+03 0.  0.
       24    2    3    3    0    0  0.39235575572E+02  0.85860311942E+02 -0.13517816683E+03  0.18294457759E+03  0.79272682082E+02 0.  0.
       -6    2    1    2    0  501 -0.63175413208E+02 -0.13932500902E+03  0.42727072677E+02  0.23644959544E+03  0.17515769316E+03 0.  0.
      -24    2    5    5    0    0 -0.75751021841E+02 -0.10591778333E+03 -0.29408369969E+02  0.15582825370E+03  0.80379091133E+02 0.  0.
        5    1    3    3  502    0  0.23939837636E+02  0.53464697074E+02  0.35509970590E+02  0.68663219185E+02  0.46999998093E+01 0. -1.
       -5    1    5    5    0  501  0.12575608633E+02 -0.33407225684E+02  0.72135442646E+02  0.80621341743E+02  0.46999998093E+01 0.  1.
       13    1    6    6    0    0 -0.17585378565E+02 -0.73250875848E+02  0.13467976277E+02  0.76526614565E+02  0.00000000000E+00 0. -1.
      -13    1    4    4    0    0 -0.18787830949E+02  0.12483110751E+02 -0.56055892283E+02  0.60424115264E+02  0.00000000000E+00 0.  1.
       14    1    4    4    0    0  0.58023406521E+02  0.73377201191E+02 -0.79122274549E+02  0.12252046233E+03  0.00000000000E+00 0. -1.
      -14    1    6    6    0    0 -0.58165643276E+02 -0.32666907485E+02 -0.42876346246E+02  0.79301639137E+02  0.00000000000E+00 0.  1.
</event>
<event>
12   0  0.9284400E-04  0.2130637E+03  0.7546771E-02  0.1139849E+00
       21   -1    0    0  501  502  0.00000000000E+00  0.00000000000E+00  0.26452260157E+03  0.26452260157E+03  0.00000000000E+00 0.  1.
       21   -1    0    0  502  503  0.00000000000E+00  0.00000000000E+00 -0.21316200201E+03  0.21316200201E+03  0.00000000000E+00 0.  1.
        6    2    1    2  501    0  0.93360537851E+02 -0.70623660008E+02  0.13446195851E+03  0.24898831016E+03  0.17381389165E+03 0.  0.
       24    2    3    3    0    0  0.12358659969E+03 -0.38151155857E+02  0.63008372156E+02  0.16475183741E+03  0.80274246506E+02 0.  0.
       -6    2    1    2    0  503 -0.93360537851E+02  0.70623660008E+02 -0.83101358946E+02  0.22869629342E+03  0.17802322147E+03 0.  0.
      -24    2    5    5    0    0  0.19555369685E+02  0.65535353643E+01 -0.27101418156E+02  0.87228747974E+02  0.80305705263E+02 0.  0.
        5    1    3    3  501    0 -0.30226061843E+02 -0.32472504150E+02  0.71453586349E+02  0.84236472746E+02  0.46999998093E+01 0. -1.
       -5    1    5    5    0  503 -0.11291590754E+03  0.64070124643E+02 -0.55999940789E+02  0.14146754544E+03  0.46999998093E+01 0.  1.
       13    1    6    6    0    0 -0.30400364419E+02 -0.33234020719E+01 -0.25248994810E+01  0.30685538540E+02  0.00000000000E+00 0. -1.
      -13    1    4    4    0    0  0.11172999823E+03 -0.41520138173E+02  0.80151372450E+02  0.14363758869E+03  0.00000000000E+00 0.  1.
       14    1    4    4    0    0  0.11856601460E+02  0.33689823161E+01 -0.17143000294E+02  0.21114248722E+02  0.00000000000E+00 0. -1.
      -14    1    6    6    0    0  0.49955734103E+02  0.98769374363E+01 -0.24576518676E+02  0.56543209434E+02  0.00000000000E+00 0.  1.
</event>
<event>
12   0  0.9284400E-04  0.1932506E+03  0.7546771E-02  0.1157154E+00
       21   -1    0    0  501  502  0.00000000000E+00  0.00000000000E+00  0.13875933689E+03  0.13875933689E+03  0.00000000000E+00 0.  1.
       21   -1    0    0  502  503  0.00000000000E+00  0.00000000000E+00 -0.35316751230E+03  0.35316751230E+03  0.00000000000E+00 0. -1.
       -6    2    1    2    0  503 -0.30385937694E+02 -0.79356854055E+02 -0.23247484820E+03  0.29783360381E+03  0.16564867950E+03 0.  0.
      -24    2    3    3    0    0  0.41778698501E+01 -0.11276211146E+03 -0.15444341826E+03  0.20606453456E+03  0.76662080472E+02 0.  0.
        6    2    1    2  501    0  0.30385937694E+02  0.79356854055E+02  0.18066672785E+02  0.19409324537E+03  0.17356545664E+03 0.  0.
       24    2    5    5    0    0  0.10823559946E+02  0.11505947445E+03  0.41167466964E+02  0.14704964415E+03  0.81074073517E+02 0.  0.
        5    1    5    5  501    0  0.19562377748E+02 -0.35702620396E+02 -0.23100794180E+02  0.47043601226E+02  0.46999998093E+01 0. -1.
       -5    1    3    3    0  503 -0.34563807544E+02  0.33405257407E+02 -0.78031429941E+02  0.91769069251E+02  0.46999998093E+01 0.  1.
       13    1    4    4    0    0 -0.24035308176E+02 -0.65173939281E+02 -0.12594848913E+03  0.14383448931E+03  0.00000000000E+00 0. -1.
      -13    1    6    6    0    0  0.38329551878E+02  0.59784751856E+02  0.46803480838E+02  0.85052553872E+02  0.00000000000E+00 0.  1.
       14    1    6    6    0    0 -0.27505991932E+02  0.55274722596E+02 -0.56360138742E+01  0.61997090275E+02  0.00000000000E+00 0. -1.
      -14    1    4    4    0    0  0.28213178026E+02 -0.47588172182E+02 -0.28494929126E+02  0.62230045250E+02  0.00000000000E+00 0.  1.
</event>
<event>
12   0  0.9284400E-04  0.2393607E+03  0.7546771E-02  0.1120274E+00
       21   -1    0    0  501  502  0.00000000000E+00  0.00000000000E+00  0.25401848336E+03  0.25401848336E+03  0.00000000000E+00 0. -1.
       21   -1    0    0  502  503  0.00000000000E+00  0.00000000000E+00 -0.25790132639E+03  0.25790132639E+03  0.00000000000E+00 0. -1.
       -6    2    1    2    0  503  0.11882425288E+03  0.11387402303E+03 -0.93025369357E+02  0.25680201705E+03  0.17380178487E+03 0.  0.
      -24    2    3    3    0    0  0.14685103799E+03  0.12086659949E+03 -0.61127416812E+02  0.21351268599E+03  0.75346823172E+02 0.  0.
        6    2    1    2  501    0 -0.11882425288E+03 -0.11387402303E+03  0.89142526329E+02  0.25511779270E+03  0.17335570933E+03 0.  0.
       24    2    5    5    0    0 -0.99620734265E+02 -0.15116545669E+03  0.81074335522E+02  0.21214557083E+03  0.75215751989E+02 0.  0.
        5    1    5    5  501    0 -0.19203518618E+02  0.37291433661E+02  0.80681908066E+01  0.42972221876E+02  0.46999998093E+01 0. -1.
       -5    1    3    3    0  503 -0.28026785104E+02 -0.69925764618E+01 -0.31897952546E+02  0.43289331061E+02  0.46999998093E+01 0.  1.
       13    1    4    4    0    0  0.75147575908E+02  0.28009876863E+02 -0.52548439227E+02  0.95880393366E+02  0.00000000000E+00 0. -1.
      -13    1    6    6    0    0 -0.28851882477E+02 -0.93131640136E+02  0.13604970868E+02  0.98443022857E+02  0.00000000000E+00 0.  1.
       14    1    6    6    0    0 -0.70768851788E+02 -0.58033816559E+02  0.67469364654E+02  0.11370254797E+03  0.00000000000E+00 0. -1.
      -14    1    4    4    0    0  0.71703462079E+02  0.92856722632E+02 -0.85789775842E+01  0.11763229263E+03  0.00000000000E+00 0.  1.
</event>
<event>
12   0  0.9284400E-04  0.2299630E+03  0.7546771E-02  0.1127789E+00
       21   -1    0    0  501  502  0.00000000000E+00  0.00000000000E+00  0.80660458931E+03  0.80660458931E+03  0.00000000000E+00 0.  1.
       21   -1    0    0  502  503  0.00000000000E+00  0.00000000000E+00 -0.64193481655E+02  0.64193481655E+02  0.00000000000E+00 0.  1.
       -6    2    1    2    0  503 -0.10016597076E+03  0.10891826138E+03  0.40092173572E+03  0.45909674696E+03  0.16773543317E+03 0.  0.
      -24    2    3    3    0    0 -0.54620539245E+02  0.57245515038E+02  0.36329516752E+03  0.38046909484E+03  0.80702546947E+02 0.  0.
        6    2    1    2  501    0  0.10016597076E+03 -0.10891826138E+03  0.34148937194E+03  0.41170132400E+03  0.17603005335E+03 0.  0.
       24    2    5    5    0    0  0.11718250268E+03 -0.13490986334E+03  0.27103894874E+03  0.33456198347E+03  0.80852946077E+02 0.  0.
        5    1    5    5  501    0 -0.17016531925E+02  0.25991601959E+02  0.70450423192E+02  0.77139340530E+02  0.46999998093E+01 0. -1.
       -5    1    3    3    0  503 -0.45545431512E+02  0.51672746339E+02  0.37626568196E+02  0.78627652122E+02  0.46999998093E+01 0.  1.
       13    1    4    4    0    0 -0.57442414778E+02  0.66748827028E+02  0.35903836882E+03  0.36968038521E+03  0.00000000000E+00 0. -1.
      -13    1    6    6    0    0  0.17961389710E+02 -0.39135216918E+02  0.18588615731E+02  0.46901101888E+02  0.00000000000E+00 0.  1.
       14    1    6    6    0    0  0.99221112973E+02 -0.95774646417E+02  0.25245033301E+03  0.28766088159E+03  0.00000000000E+00 0. -1.
      -14    1    4    4    0    0  0.28218755326E+01 -0.95033119902E+01  0.42567987064E+01  0.10788709632E+02  0.00000000000E+00 0.  1.
</event>
<event>
12   0  0.9284400E-04  0.1760336E+03  0.7546771E-02  0.1172237E+00
       21   -1    0    0  503  502  0.00000000000E+00  0.00000000000E+00  0.15605439847E+03  0.15605439847E+03  0.00000000000E+00 0. -1.
       21   -1    0    0  501  503  0.00000000000E+00  0.00000000000E+00 -0.19647401508E+03  0.19647401508E+03  0.00000000000E+00 0. -1.
        6    2    1    2  501    0  0.49469736308E+01  0.78145645331E+00 -0.27227799107E+02  0.17600116450E+03  0.17381016552E+03 0.  0.
       24    2    3    3    0    0 -0.39983378906E+02  0.24507741363E+02 -0.63257241077E+02  0.11353610337E+03  0.81790392133E+02 0.  0.
       -6    2    1    2    0  502 -0.49469736308E+01 -0.78145645331E+00 -0.13191817511E+02  0.17652724905E+03  0.17596238912E+03 0.  0.
      -24    2    5    5    0    0  0.23088962887E+02  0.39883660875E+01  0.57475528372E+02  0.10020733870E+03  0.78670624097E+02 0.  0.
        5    1    3    3  501    0  0.44930352537E+02 -0.23726284909E+02  0.36029441970E+02  0.62465061126E+02  0.46999998093E+01 0. -1.
       -5    1    5    5    0  502 -0.28035936518E+02 -0.47698225408E+01 -0.70667345884E+02  0.76319910351E+02  0.46999998093E+01 0.  1.
       13    1    6    6    0    0  0.16572973830E+02  0.81651875103E+01 -0.17134035768E+02  0.25197399277E+02  0.00000000000E+00 0. -1.
      -13    1    4    4    0    0  0.14432148189E+02  0.35619200901E+02 -0.30439307407E+02  0.49026174739E+02  0.00000000000E+00 0.  1.
       14    1    4    4    0    0 -0.54415527095E+02 -0.11111459538E+02 -0.32817933670E+02  0.64509928635E+02  0.00000000000E+00 0. -1.
      -14    1    6    6    0    0  0.65159890576E+01 -0.41768214227E+01  0.74609564140E+02  0.75009939420E+02  0.00000000000E+00 0.  1.
</event>
<event>
12   0  0.9284400E-04  0.2450257E+03  0.7546771E-02  0.1116489E+00
       -1   -1    0    0    0  501  0.00000000000E+00  0.00000000000E+00  0.95181333480E+02  0.95181333480E+02  0.00000000000E+00 0.  1.
        1   -1    0    0  502    0  0.00000000000E+00  0.00000000000E+00 -0.87523253866E+03  0.87523253866E+03  0.00000000000E+00 0. -1.
        6    2    1    2  502    0 -0.14345161344E+03  0.99150554799E+02 -0.64664299708E+03  0.69156668638E+03  0.17236043085E+03 0.  0.
       24    2    3    3    0    0 -0.58039621881E+02  0.36426820123E+02 -0.49944491624E+03  0.51013118766E+03  0.78058268833E+02 0.  0.
       -6    2    1    2    0  501  0.14345161344E+03 -0.99150554799E+02 -0.13340820810E+03  0.27884718576E+03  0.17189765880E+03 0.  0.
      -24    2    5    5    0    0  0.83775133407E+02 -0.30244832051E+02 -0.14470926671E+03  0.18687390257E+03  0.77769278924E+02 0.  0.
        5    1    3    3  502    0 -0.85411991562E+02  0.62723734676E+02 -0.14719808084E+03  0.18143549872E+03  0.46999998093E+01 0. -1.
       -5    1    5    5    0  501  0.59676480035E+02 -0.68905722748E+02  0.11301058617E+02  0.91973283191E+02  0.46999998093E+01 0.  1.
       13    1    6    6    0    0  0.71268013059E+02  0.10269104017E+02 -0.11273973703E+03  0.13377156831E+03  0.00000000000E+00 0. -1.
      -13    1    4    4    0    0 -0.33956615949E+02 -0.10527310306E+02 -0.82145193305E+02  0.89508149417E+02  0.00000000000E+00 0.  1.
       14    1    4    4    0    0 -0.24083005932E+02  0.46954130429E+02 -0.41729972294E+03  0.42062303825E+03  0.00000000000E+00 0. -1.
      -14    1    6    6    0    0  0.12507120348E+02 -0.40513936067E+02 -0.31969529678E+02  0.53102334251E+02  0.00000000000E+00 0.  1.
</event>
<event>
12   0  0.9284400E-04  0.1882869E+03  0.7546771E-02  0.1160503E+00
       21   -1    0    0  503  502  0.00000000000E+00  0.00000000000E+00  0.22825648275E+03  0.22825648275E+03  0.00000000000E+00 0. -1.
       21   -1    0    0  501  503  0.00000000000E+00  0.00000000000E+00 -0.18143165105E+03  0.18143165105E+03  0.00000000000E+00 0. -1.
        6    2    1    2  501    0  0.35006394843E+02  0.58900318034E+02 -0.56745889196E+02  0.19665211743E+03  0.17537749058E+03 0.  0.
       24    2    3    3    0    0  0.15923150611E+01  0.64509878384E+02  0.26596834414E+02  0.10656289792E+03  0.80524528778E+02 0.  0.
       -6    2    1    2    0  502 -0.35006394843E+02 -0.58900318034E+02  0.10357072089E+03  0.21303601637E+03  0.17309753003E+03 0.  0.
      -24    2    5    5    0    0 -0.60731425550E+02 -0.60368523223E+02  0.14178719829E+02  0.11988585436E+03  0.82697746853E+02 0.  0.
        5    1    3    3  501    0  0.33414079782E+02 -0.56095603504E+01 -0.83342723610E+02  0.90089219510E+02  0.46999998093E+01 0. -1.
       -5    1    5    5    0  502  0.25725030707E+02  0.14682051889E+01  0.89392001060E+02  0.93150162013E+02  0.46999998093E+01 0.  1.
       13    1    6    6    0    0 -0.20061788020E+02  0.20296402824E+02  0.61432655696E+01  0.29191762845E+02  0.00000000000E+00 0. -1.
      -13    1    4    4    0    0  0.65702949856E+01  0.79676013456E+02  0.55378255674E+01  0.80138027231E+02  0.00000000000E+00 0.  1.
       14    1    4    4    0    0 -0.49779799246E+01 -0.15166135071E+02  0.21059008847E+02  0.26424870685E+02  0.00000000000E+00 0. -1.
      -14    1    6    6    0    0 -0.40669637530E+02 -0.80664926047E+02  0.80354542590E+01  0.90694091517E+02  0.00000000000E+00 0.  1.
</event>
<event>
12   0  0.9284400E-04  0.2492048E+03  0.7546771E-02  0.1113989E+00
       21   -1    0    0  503  502  0.00000000000E+00  0.00000000000E+00  0.81882236537E+03  0.81882236537E+03  0.00000000000E+00 0. -1.
       21   -1    0    0  501  503  0.00000000000E+00  0.00000000000E+00 -0.75566215592E+02  0.75566215592E+02  0.00000000000E+00 0.  1.
        6    2    1    2  501    0 -0.36297646100E+02 -0.17585971599E+03  0.35744220725E+03  0.43508971936E+03  0.17115482332E+03 0.  0.
       24    2    3    3    0    0  0.22212277745E+02 -0.94016839981E+02  0.28302935019E+03  0.30986579658E+03  0.81108861030E+02 0.  0.
       -6    2    1    2    0  502  0.36297646100E+02  0.17585971599E+03  0.38581394253E+03  0.45929886161E+03  0.17279724304E+03 0.  0.
      -24    2    5    5    0    0  0.13313885117E+02  0.16719411363E+03  0.20767769320E+03  0.27941567936E+03  0.82534637872E+02 0.  0.
        5    1    3    3  501    0 -0.58509923845E+02 -0.81842876012E+02  0.74412857059E+02  0.12522392278E+03  0.46999998093E+01 0. -1.
       -5    1    5    5    0  502  0.22983760983E+02  0.86656023650E+01  0.17813624933E+03  0.17988318225E+03  0.46999998093E+01 0.  1.
       13    1    6    6    0    0  0.69496531724E+00  0.93066804685E+02  0.17335607790E+03  0.19675935265E+03  0.00000000000E+00 0. -1.
      -13    1    4    4    0    0 -0.11676295177E+00 -0.23603169109E+02  0.77433591336E+01  0.24841152072E+02  0.00000000000E+00 0.  1.
       14    1    4    4    0    0  0.22329040696E+02 -0.70413670872E+02  0.27528599106E+03  0.28502464451E+03  0.00000000000E+00 0. -1.
      -14    1    6    6    0    0  0.12618919800E+02  0.74127308942E+02  0.34321615307E+02  0.82656326711E+02  0.00000000000E+00 0.  1.
</event>
<event>
12   0  0.9284400E-04  0.2092610E+03  0.7546771E-02  0.1142799E+00
       21   -1    0    0  501  502  0.00000000000E+00  0.00000000000E+00  0.17596425373E+03  0.17596425373E+03  0.00000000000E+00 0. -1.
       21   -1    0    0  502  503  0.00000000000E+00  0.00000000000E+00 -0.24529940890E+03  0.24529940890E+03  0.00000000000E+00 0. -1.
       -6    2    1    2    0  503 -0.11463317072E+03  0.50699593127E+01 -0.41781240417E+02  0.21339124201E+03  0.17499623367E+03 0.  0.
      -24    2    3    3    0    0 -0.11640431895E+03 -0.27250586947E+02 -0.81225884628E+02  0.16214941699E+03  0.73499858065E+02 0.  0.
        6    2    1    2  501    0  0.11463317072E+03 -0.50699593127E+01 -0.27553914749E+02  0.20787242062E+03  0.17112935668E+03 0.  0.
       24    2    5    5    0    0  0.37514622072E+02  0.52258063332E+01  0.45743844283E+02  0.10087744497E+03  0.81542036357E+02 0.  0.
        5    1    5    5  501    0  0.77118548648E+02 -0.10295765646E+02 -0.73297759032E+02  0.10699497564E+03  0.46999998093E+01 0. -1.
       -5    1    3    3    0  503  0.17711482345E+01  0.32320546260E+02  0.39444644211E+02  0.51241825023E+02  0.46999998093E+01 0.  1.
       13    1    4    4    0    0 -0.43834365300E+02  0.25401339879E+02 -0.30553564902E+02  0.59162487922E+02  0.00000000000E+00 0. -1.
      -13    1    6    6    0    0  0.13839599819E+02 -0.37964219300E+02  0.24356081295E+02  0.47180877125E+02  0.00000000000E+00 0.  1.
       14    1    6    6    0    0  0.23675022253E+02  0.43190025634E+02  0.21387762988E+02  0.53696567847E+02  0.00000000000E+00 0. -1.
      -14    1    4    4    0    0 -0.72569953654E+02 -0.52651926826E+02 -0.50672319726E+02  0.10298692907E+03  0.00000000000E+00 0.  1.
</event>
<event>
12   0  0.9284400E-04  0.1800169E+03  0.7546771E-02  0.1167966E+00
       21   -1    0    0  503  502  0.00000000000E+00  0.00000000000E+00  0.40419857921E+03  0.40419857921E+03  0.00000000000E+00 0. -1.
       21   -1    0    0  501  503  0.00000000000E+00  0.00000000000E+00 -0.82226563698E+02  0.82226563698E+02  0.00000000000E+00 0. -1.
        6    2    1    2  501    0  0.50045098364E+02 -0.19710006480E+02  0.11927857212E+03  0.21533345368E+03  0.17102082411E+03 0.  0.
       24    2    3    3    0    0  0.34491074344E+02 -0.78633426778E+02  0.80676347203E+02  0.14304155310E+03  0.81113272020E+02 0.  0.
       -6    2    1    2    0  502 -0.50045098364E+02  0.19710006480E+02  0.20269344339E+03  0.27109168923E+03  0.17179370114E+03 0.  0.
      -24    2    5    5    0    0 -0.18180356470E+02  0.34279417383E+02  0.21550398421E+03  0.23349076552E+03  0.81057797628E+02 0.  0.
        5    1    3    3  501    0  0.15554024020E+02  0.58923420298E+02  0.38602224918E+02  0.72291900581E+02  0.46999998093E+01 0. -1.
       -5    1    5    5    0  502 -0.31864741895E+02 -0.14569410903E+02 -0.12810540813E+02  0.37600923715E+02  0.46999998093E+01 0.  1.
       13    1    6    6    0    0 -0.43956440753E+02  0.43518294509E+02  0.13605396529E+03  0.14945464901E+03  0.00000000000E+00 0. -1.
      -13    1    4    4    0    0  0.45755070233E+01 -0.39486756370E+02  0.84745388666E+02  0.93605128563E+02  0.00000000000E+00 0.  1.
       14    1    4    4    0    0  0.29915567321E+02 -0.39146670407E+02 -0.40690414634E+01  0.49436424532E+02  0.00000000000E+00 0. -1.
      -14    1    6    6    0    0  0.25776084283E+02 -0.92388771257E+01  0.79450018917E+02  0.84036116506E+02  0.00000000000E+00 0.  1.
</event>
<event>
11   0  0.9284400E-04  0.1978893E+03  0.7546771E-02  0.1152530E+00
       21   -1    0    0  501  502  0.00000000000E+00  0.00000000000E+00  0.57814498715E+03  0.57814498715E+03  0.00000000000E+00 0.  1.
       21   -1    0    0  502  503  0.00000000000E+00  0.00000000000E+00 -0.89690028880E+02  0.89690028880E+02  0.00000000000E+00 0.  1.
       -6    2    1    2    0  503 -0.78416512727E+02 -0.34232517048E+02  0.75348742882E+02  0.21174888338E+03  0.17843525959E+03 0.  0.
        6    2    1    2  501    0  0.78416512727E+02  0.34232517048E+02  0.41310621539E+03  0.45608613265E+03  0.17331128213E+03 0.  0.
       24    2    4    4    0    0 -0.22138746438E+02 -0.25696012548E+01  0.12895441663E+03  0.15239205831E+03  0.78085663995E+02 0.  0.
        5    1    4    4  501    0  0.10055525917E+03  0.36802118303E+02  0.28415179876E+03  0.30369407434E+03  0.46999998093E+01 0. -1.
       -5    1    3    3    0  503 -0.11795029947E+03  0.22325317629E+02  0.59738983241E+02  0.13416977704E+03  0.46999998093E+01 0.  1.
       13    1    3    3    0    0  0.21493673375E+02 -0.39379011758E+02 -0.51424354509E+01  0.45156718266E+02  0.00000000000E+00 0. -1.
      -13    1    5    5    0    0  0.10888198907E+02  0.15987037922E+02  0.10673523835E+03  0.10847372660E+03  0.00000000000E+00 0.  1.
       14    1    5    5    0    0 -0.33026945345E+02 -0.18556639177E+02  0.22219178282E+02  0.43918331707E+02  0.00000000000E+00 0. -1.
      -14    1    3    3    0    0  0.18040113373E+02 -0.17178822919E+02  0.20752195092E+02  0.32422388075E+02  0.00000000000E+00 0.  1.
</event>
<event>
12   0  0.9284400E-04  0.2172156E+03  0.7546771E-02  0.1135976E+00
        2   -1    0    0  502    0  0.00000000000E+00  0.00000000000E+00  0.20295948291E+03  0.20295948291E+03  0.00000000000E+00 0.  1.
       -2   -1    0    0    0  501  0.00000000000E+00  0.00000000000E+00 -0.34793793994E+03  0.34793793994E+03  0.00000000000E+00 0. -1.
        6    2    1    2  502    0  0.92110760403E+02 -0.91359074219E+02 -0.23131920497E+03  0.31779512373E+03  0.17508367559E+03 0.  0.
       24    2    3    3    0    0  0.15432974610E+02 -0.48419486691E+02 -0.31109081506E+02  0.99095616311E+02  0.79180444702E+02 0.  0.
       -6    2    1    2    0  501 -0.92110760403E+02  0.91359074219E+02  0.86340747941E+02  0.23310229912E+03  0.17335248621E+03 0.  0.
      -24    2    5    5    0    0 -0.69324171289E+02  0.10222842653E+03  0.12039667355E+03  0.19044942664E+03  0.80741149299E+02 0.  0.
        5    1    3    3  502    0  0.76677785793E+02 -0.42939587527E+02 -0.20021012346E+03  0.21869950742E+03  0.46999998093E+01 0. -1.
       -5    1    5    5    0  501 -0.22786589113E+02 -0.10869352316E+02 -0.34055925608E+02  0.42652872475E+02  0.46999998093E+01 0.  1.
       13    1    6    6    0    0 -0.13383082340E+01  0.12307060291E+02 -0.11531629288E+02  0.16918430069E+02  0.00000000000E+00 0. -1.
      -13    1    4    4    0    0 -0.19789189263E+02  0.12198705955E+02 -0.25229704390E+01  0.23383451809E+02  0.00000000000E+00 0.  1.
       14    1    4    4    0    0  0.35222163873E+02 -0.60618192647E+02 -0.28586111067E+02  0.75712164502E+02  0.00000000000E+00 0. -1.
      -14    1    6    6    0    0 -0.67985863055E+02  0.89921366243E+02  0.13192830284E+03  0.17353099657E+03  0.00000000000E+00 0.  1.
</event>
<event>
12   0  0.9284400E-04  0.2182938E+03  0.7546771E-02  0.1135228E+00
       21   -1    0    0  501  502  0.00000000000E+00  0.00000000000E+00  0.43247089835E+03  0.43247089835E+03  0.00000000000E+00 0.  1.
       21   -1    0    0  502  503  0.00000000000E+00  0.00000000000E+00 -0.12002818740E+03  0.12002818740E+03  0.00000000000E+00 0.  1.
       -6    2    1    2    0  503  0.13058106718E+03 -0.23445017324E+02  0.76519660977E+02  0.23131678773E+03  0.17335257086E+03 0.  0.
      -24    2    3    3    0    0  0.10447090511E+02 -0.26860153461E+02  0.71544580188E+02  0.11093956009E+03  0.79739259434E+02 0.  0.
        6    2    1    2  501    0 -0.13058106718E+03  0.23445017324E+02  0.23592304998E+03  0.32118229803E+03  0.17290835466E+03 0.  0.
       24    2    5    5    0    0 -0.91782355812E+02  0.69370063736E+02  0.99975073009E+02  0.17245976331E+03  0.80691685806E+02 0.  0.
        5    1    5    5  501    0 -0.38798711371E+02 -0.45925046413E+02  0.13594797697E+03  0.14872253471E+03  0.46999998093E+01 0. -1.
       -5    1    3    3    0  503  0.12013397667E+03  0.34151361369E+01  0.49750807890E+01  0.12037722763E+03  0.46999998093E+01 0.  1.
       13    1    4    4    0    0 -0.21811221513E+02 -0.13921023297E+02 -0.54685342233E+01  0.26446722672E+02  0.00000000000E+00 0. -1.
      -13    1    6    6    0    0 -0.20287363672E+02  0.38926705328E+01 -0.12361856206E+02  0.24073751214E+02  0.00000000000E+00 0.  1.
       14    1    6    6    0    0 -0.71494992139E+02  0.65477393204E+02  0.11233692922E+03  0.14838601210E+03  0.00000000000E+00 0. -1.
      -14    1    4    4    0    0  0.32258312024E+02 -0.12939130164E+02  0.77013114411E+02  0.84492837420E+02  0.00000000000E+00 0.  1.
</event>
<event>
12   0  0.9284400E-04  0.1828920E+03  0.7546771E-02  0.1165209E+00
       21   -1    0    0  503  502  0.00000000000E+00  0.00000000000E+00  0.46567523300E+03  0.46567523300E+03  0.00000000000E+00 0.  1.
       21   -1    0    0  501  503  0.00000000000E+00  0.00000000000E+00 -0.87583643694E+02  0.87583643694E+02  0.00000000000E+00 0.  1.
        6    2    1    2  501    0 -0.55540661733E+02  0.15955050001E+02  0.70335060308E+02  0.19525949293E+03  0.17274235192E+03 0.  0.
       24    2    3    3    0    0 -0.14997875872E+02 -0.25064114759E+02 -0.19713854791E+02  0.88221245228E+02  0.80877721960E+02 0.  0.
       -6    2    1    2    0  502  0.55540661733E+02 -0.15955050001E+02  0.30775652900E+03  0.35799938376E+03  0.17352276193E+03 0.  0.
      -24    2    5    5    0    0  0.94480966975E+02 -0.88907366339E+01  0.15720011876E+03  0.20225737094E+03  0.84796629904E+02 0.  0.
        5    1    3    3  501    0 -0.40542785861E+02  0.41019164759E+02  0.90048915099E+02  0.10703824770E+03  0.46999998093E+01 0. -1.
       -5    1    5    5    0  502 -0.38940305242E+02 -0.70643133666E+01  0.15055641024E+03  0.15574201283E+03  0.46999998093E+01 0.  1.
       13    1    6    6    0    0  0.96368213632E+02 -0.33709500564E+02  0.13150576624E+03  0.16648402200E+03  0.00000000000E+00 0. -1.
      -13    1    4    4    0    0  0.20040339409E+02  0.15900413101E+02  0.90329727558E+01  0.27129926967E+02  0.00000000000E+00 0.  1.
       14    1    4    4    0    0 -0.35038215281E+02 -0.40964527860E+02 -0.28746827547E+02  0.61091318261E+02  0.00000000000E+00 0. -1.
      -14    1    6    6    0    0 -0.18872466573E+01  0.24818763930E+02  0.25694352521E+02  0.35773348941E+02  0.00000000000E+00 0.  1.
</event>
<event>
12   0  0.9284400E-04  0.1862585E+03  0.7546771E-02  0.1162378E+00
       21   -1    0    0  503  502  0.00000000000E+00  0.00000000000E+00  0.10207346332E+03  0.10207346332E+03  0.00000000000E+00 0.  1.
       21   -1    0    0  501  503  0.00000000000E+00  0.00000000000E+00 -0.45290092623E+03  0.45290092623E+03  0.00000000000E+00 0. -1.
        6    2    1    2  501    0  0.17939383117E+02  0.61440434144E+02 -0.31715477990E+03  0.36780345362E+03  0.17491563013E+03 0.  0.
       24    2    3    3    0    0  0.61431536975E+02  0.90818011700E+02 -0.20395453048E+03  0.24293954379E+03  0.73487593839E+02 0.  0.
       -6    2    1    2    0  502 -0.17939383117E+02 -0.61440434144E+02 -0.33672683006E+02  0.18717093593E+03  0.17263360409E+03 0.  0.
      -24    2    5    5    0    0  0.31869011009E+02 -0.65687552439E+02 -0.66748650249E+02  0.12704586840E+03  0.79716886281E+02 0.  0.
        5    1    3    3  501    0 -0.43492153858E+02 -0.29377577556E+02 -0.11320024942E+03  0.12486390983E+03  0.46999998093E+01 0. -1.
       -5    1    5    5    0  502 -0.49808394125E+02  0.42471182950E+01  0.33075967242E+02  0.60125067538E+02  0.46999998093E+01 0.  1.
       13    1    6    6    0    0 -0.98250211027E+00 -0.36119693048E+02 -0.73911581053E+02  0.82271011602E+02  0.00000000000E+00 0. -1.
      -13    1    4    4    0    0  0.15005388598E+02  0.28294519671E+02 -0.94002429104E+01  0.33378227891E+02  0.00000000000E+00 0.  1.
       14    1    4    4    0    0  0.46426148377E+02  0.62523492029E+02 -0.19455428757E+03  0.20956131590E+03  0.00000000000E+00 0. -1.
      -14    1    6    6    0    0  0.32851513119E+02 -0.29567859391E+02  0.71629308043E+01  0.44774856794E+02  0.00000000000E+00 0.  1.
</event>
<event>
12   0  0.9284400E-04  0.2312723E+03  0.7546771E-02  0.1125933E+00
       21   -1    0    0  503  502  0.00000000000E+00  0.00000000000E+00  0.11411071681E+04  0.11411071681E+04  0.00000000000E+00 0.  1.
       21   -1    0    0  501  503  0.00000000000E+00  0.00000000000E+00 -0.50464784089E+02  0.50464784089E+02  0.00000000000E+00 0.  1.
        6    2    1    2  501    0 -0.96843253652E+02 -0.11681595925E+03  0.38284978411E+03  0.44728159755E+03  0.17453448428E+03 0.  0.
       24    2    3    3    0    0 -0.67147204270E+02 -0.15523851957E+03  0.29002904565E+03  0.34242012715E+03  0.67282621470E+02 0.  0.
       -6    2    1    2    0  502  0.96843253652E+02  0.11681595925E+03  0.70779259993E+03  0.74429035467E+03  0.17312765064E+03 0.  0.
      -24    2    5    5    0    0 -0.12506677468E+02  0.37869751195E+02  0.36713507230E+03  0.37787590035E+03  0.80071840963E+02 0.  0.
        5    1    3    3  501    0 -0.29696049382E+02  0.38422560320E+02  0.92820738457E+02  0.10486147041E+03  0.46999998093E+01 0. -1.
       -5    1    5    5    0  502  0.10934993112E+03  0.78946208053E+02  0.34065752764E+03  0.36641445432E+03  0.46999998093E+01 0.  1.
       13    1    6    6    0    0  0.14900074350E+02  0.29021468677E+02  0.51722564501E+02  0.61151300382E+02  0.00000000000E+00 0. -1.
      -13    1    4    4    0    0 -0.17028652896E+02 -0.93309095678E+02  0.20511201020E+03  0.22598119188E+03  0.00000000000E+00 0.  1.
       14    1    4    4    0    0 -0.50118551374E+02 -0.61929423891E+02  0.84917035458E+02  0.11643893527E+03  0.00000000000E+00 0. -1.
      -14    1    6    6    0    0 -0.27406751818E+02  0.88482825186E+01  0.31541250780E+03  0.31672459996E+03  0.00000000000E+00 0.  1.
</event>
<event>
12   0  0.9284400E-04  0.3832863E+03  0.7546771E-02  0.1049791E+00
       21   -1    0    0  501  502  0.00000000000E+00  0.00000000000E+00  0.97960955164E+03  0.97960955164E+03  0.00000000000E+00 0.  1.
       21   -1    0    0  502  503  0.00000000000E+00  0.00000000000E+00 -0.15560947081E+03  0.15560947081E+03  0.00000000000E+00 0. -1.
       -6    2    1    2    0  503 -0.32625634840E+03 -0.97175906904E+02  0.30163648105E+03  0.48774273596E+03  0.17613076969E+03 0.  0.
      -24    2    3    3    0    0 -0.28120787239E+03 -0.19881148197E+02  0.23970581889E+03  0.37883294839E+03  0.81131964300E+02 0.  0.
        6    2    1    2  501    0  0.32625634840E+03  0.97175906904E+02  0.52236359977E+03  0.64747628649E+03  0.17457218978E+03 0.  0.
       24    2    5    5    0    0  0.28761172876E+03  0.52180085226E+02  0.49793016802E+03  0.58315589174E+03  0.81811209687E+02 0.  0.
        5    1    5    5  501    0  0.38644619634E+02  0.44995821679E+02  0.24433431755E+02  0.64320394750E+02  0.46999998093E+01 0. -1.
       -5    1    3    3    0  503 -0.45048476008E+02 -0.77294758708E+02  0.61930662165E+02  0.10890978757E+03  0.46999998093E+01 0.  1.
       13    1    4    4    0    0 -0.14129889995E+03 -0.16139544765E+02  0.68957985156E+02  0.15805400263E+03  0.00000000000E+00 0. -1.
      -13    1    6    6    0    0  0.10288449450E+02 -0.41189487245E+01  0.65052313714E+02  0.65989555615E+02  0.00000000000E+00 0.  1.
       14    1    6    6    0    0  0.27732327931E+03  0.56299033950E+02  0.43287785430E+03  0.51716633612E+03  0.00000000000E+00 0. -1.
      -14    1    4    4    0    0 -0.13990897244E+03 -0.37416034315E+01  0.17074783373E+03  0.22077894576E+03  0.00000000000E+00 0.  1.
</event>
<event>
12   0  0.9284400E-04  0.1769519E+03  0.7546771E-02  0.1171146E+00
       21   -1    0    0  501  502  0.00000000000E+00  0.00000000000E+00  0.23287531748E+04  0.23287531748E+04  0.00000000000E+00 0. -1.
       21   -1    0    0  502  503  0.00000000000E+00  0.00000000000E+00 -0.18198240727E+02  0.18198240727E+02  0.00000000000E+00 0. -1.
       -6    2    1    2    0  503 -0.19747436678E+02  0.18839463351E+02  0.55219763448E+03  0.57985705661E+03  0.17483447010E+03 0.  0.
      -24    2    3    3    0    0 -0.70662989511E+02 -0.15061270714E+02  0.42958979718E+03  0.44275700169E+03  0.79159767232E+02 0.  0.
        6    2    1    2  501    0  0.19747436678E+02 -0.18839463351E+02  0.17583572996E+04  0.17670943589E+04  0.17337010604E+03 0.  0.
       24    2    5    5    0    0  0.65059281428E+02  0.15280639516E+02  0.69698706018E+03  0.70419915251E+03  0.75095115021E+02 0.  0.
        5    1    5    5  501    0 -0.45311844750E+02 -0.34120102867E+02  0.10613702394E+04  0.10628952064E+04  0.46999998093E+01 0. -1.
       -5    1    3    3    0  503  0.50915552833E+02  0.33900734065E+02  0.12260783730E+03  0.13710005491E+03  0.46999998093E+01 0.  1.
       13    1    4    4    0    0 -0.69325634290E+02  0.11482115541E+02  0.20734686389E+03  0.21893059291E+03  0.00000000000E+00 0. -1.
      -13    1    6    6    0    0  0.49026347416E+02 -0.24233548394E+02  0.30150395738E+03  0.30642370000E+03  0.00000000000E+00 0.  1.
       14    1    6    6    0    0  0.16032934012E+02  0.39514187910E+02  0.39548310280E+03  0.39777545251E+03  0.00000000000E+00 0. -1.
      -14    1    4    4    0    0 -0.13373552202E+01 -0.26543386254E+02  0.22224293329E+03  0.22382640879E+03  0.00000000000E+00 0.  1.
</event>
<event>
12   0  0.9284400E-04  0.2856624E+03  0.7546771E-02  0.1092916E+00
       21   -1    0    0  503  502  0.00000000000E+00  0.00000000000E+00  0.24429960762E+04  0.24429960762E+04  0.00000000000E+00 0.  1.
       21   -1    0    0  501  503  0.00000000000E+00  0.00000000000E+00 -0.15103739371E+03  0.15103739371E+03  0.00000000000E+00 0.  1.
        6    2    1    2  501    0  0.14844536805E+03 -0.16935150398E+03 -0.77825328188E+00  0.28356908958E+03  0.17232197682E+03 0.  0.
       24    2    3    3    0    0  0.10862087890E+03 -0.17328981182E+03  0.43224610919E+02  0.22390467590E+03  0.80231432018E+02 0.  0.
       -6    2    1    2    0  502 -0.14844536805E+03  0.16935150398E+03  0.22927369357E+04  0.23104643803E+04  0.17574708217E+03 0.  0.
      -24    2    5    5    0    0 -0.44710818775E+01  0.56563136387E+02  0.60643474751E+03  0.61426658199E+03  0.79630093482E+02 0.  0.
        5    1    3    3  501    0  0.39824489147E+02  0.39383078497E+01 -0.44002864201E+02  0.59664413687E+02  0.46999998093E+01 0. -1.
       -5    1    5    5    0  502 -0.14397428617E+03  0.11278836759E+03  0.16863021882E+04  0.16961977983E+04  0.46999998093E+01 0.  1.
       13    1    6    6    0    0 -0.28404027773E+02  0.47976163441E+02  0.21855780801E+03  0.22555712468E+03  0.00000000000E+00 0. -1.
      -13    1    4    4    0    0  0.12186815123E+02 -0.57220005218E+02 -0.17767297197E+02  0.61141837638E+02  0.00000000000E+00 0.  1.
       14    1    4    4    0    0  0.96434063778E+02 -0.11606980661E+03  0.60991908115E+02  0.16276283826E+03  0.00000000000E+00 0. -1.
      -14    1    6    6    0    0  0.23932945896E+02  0.85869729465E+01  0.38787693950E+03  0.38870945730E+03  0.00000000000E+00 0.  1.
</event>
<event>
12   0  0.9284400E-04  0.2879530E+03  0.7546771E-02  0.1091449E+00
       21   -1    0    0  501  502  0.00000000000E+00  0.00000000000E+00  0.36095881980E+03  0.36095881980E+03  0.00000000000E+00 0.  1.
       21   -1    0    0  502  503  0.00000000000E+00  0.00000000000E+00 -0.28338094466E+03  0.28338094466E+03  0.00000000000E+00 0.  1.
       -6    2    1    2    0  503 -0.11268252972E+03  0.20029640348E+03  0.17918639831E+03  0.33898553760E+03  0.17316878359E+03 0.  0.
      -24    2    3    3    0    0 -0.12324004409E+03  0.84884505922E+02  0.11001809831E+03  0.20393846828E+03  0.84222497443E+02 0.  0.
        6    2    1    2  501    0  0.11268252972E+03 -0.20029640348E+03 -0.10160852317E+03  0.30535422685E+03  0.17349613865E+03 0.  0.
       24    2    5    5    0    0  0.78331955387E+02 -0.64233435282E+02 -0.10229247388E+03  0.16494179486E+03  0.80499789039E+02 0.  0.
        5    1    5    5  501    0  0.34350574330E+02 -0.13606296820E+03  0.68395070713E+00  0.14041243200E+03  0.46999998093E+01 0. -1.
       -5    1    3    3    0  503  0.10557514376E+02  0.11541189756E+03  0.69168299998E+02  0.13504706932E+03  0.46999998093E+01 0.  1.
       13    1    4    4    0    0 -0.51164629886E+02 -0.65566197212E+01  0.54184824052E+02  0.74811788985E+02  0.00000000000E+00 0. -1.
      -13    1    6    6    0    0  0.71658651264E+02 -0.15613193880E+02 -0.33982153154E+02  0.80830197680E+02  0.00000000000E+00 0.  1.
       14    1    6    6    0    0  0.66733041235E+01 -0.48620241402E+02 -0.68310320728E+02  0.84111597178E+02  0.00000000000E+00 0. -1.
      -14    1    4    4    0    0 -0.72075414207E+02  0.91441125643E+02  0.55833274263E+02  0.12912667930E+03  0.00000000000E+00 0.  1.
</event>
<event>
12   0  0.9284400E-04  0.1992791E+03  0.7546771E-02  0.1150429E+00
       21   -1    0    0  501  502  0.00000000000E+00  0.00000000000E+00  0.51347542652E+03  0.51347542652E+03  0.00000000000E+00 0.  1.
       21   -1    0    0  502  503  0.00000000000E+00  0.00000000000E+00 -0.89823926857E+02  0.89823926857E+02  0.00000000000E+00 0.  1.
       -6    2    1    2    0  503  0.28949669890E+02 -0.95141247907E+02  0.98885710499E+02  0.22246470941E+03  0.17269111949E+03 0.  0.
      -24    2    3    3    0    0 -0.44235438347E+02 -0.68127446351E+02  0.86216904587E+02  0.14329151834E+03  0.80628665130E+02 0.  0.
        6    2    1    2  501    0 -0.28949669890E+02  0.95141247907E+02  0.32476578916E+03  0.38083464396E+03  0.17225640131E+03 0.  0.
       24    2    5    5    0    0  0.29800396815E+02  0.96956472515E+02  0.16229149434E+03  0.20799121234E+03  0.81444423161E+02 0.  0.
        5    1    5    5  501    0 -0.58750066706E+02 -0.18152246074E+01  0.16247429482E+03  0.17284343162E+03  0.46999998093E+01 0. -1.
       -5    1    3    3    0  503  0.73185108237E+02 -0.27013801557E+02  0.12668805912E+02  0.79173191067E+02  0.46999998093E+01 0.  1.
       13    1    4    4    0    0  0.10116828054E+02  0.92585202142E+01 -0.21292974329E+01  0.13878195632E+02  0.00000000000E+00 0. -1.
      -13    1    6    6    0    0  0.18794472198E+02  0.11029851254E+03  0.13136145719E+03  0.17255383649E+03  0.00000000000E+00 0.  1.
       14    1    6    6    0    0  0.11005924618E+02 -0.13342040028E+02  0.30930037153E+02  0.35437375850E+02  0.00000000000E+00 0. -1.
      -14    1    4    4    0    0 -0.54352266401E+02 -0.77385966565E+02  0.88346202020E+02  0.12941332271E+03  0.00000000000E+00 0.  1.
</event>
<event>
12   0  0.9284400E-04  0.1968459E+03  0.7546771E-02  0.1152935E+00
       21   -1    0    0  501  502  0.00000000000E+00  0.00000000000E+00  0.13265982596E+04  0.13265982596E+04  0.00000000000E+00 0.  1.
       21   -1    0    0  502  503  0.00000000000E+00  0.00000000000E+00 -0.30886646064E+02  0.30886646064E+02  0.00000000000E+00 0. -1.
       -6    2    1    2    0  503  0.14714469818E+02  0.63256555326E+02  0.47773316277E+03  0.51669845026E+03  0.18582358914E+03 0.  0.
      -24    2    3    3    0    0 -0.37897377224E+02  0.99675802951E+02  0.31482903550E+03  0.34161500522E+03  0.78816326391E+02 0.  0.
        6    2    1    2  501    0 -0.14714469818E+02 -0.63256555326E+02  0.81797845077E+03  0.84078645540E+03  0.18334451247E+03 0.  0.
       24    2    5    5    0    0 -0.81506901654E+02 -0.25447016755E+02  0.46464108549E+03  0.47917869296E+03  0.80187005082E+02 0.  0.
        5    1    5    5  501    0  0.66792431837E+02 -0.37809538571E+02  0.35333736527E+03  0.36160776244E+03  0.46999998093E+01 0. -1.
       -5    1    3    3    0  503  0.52611847042E+02 -0.36419247626E+02  0.16290412727E+03  0.17508344504E+03  0.46999998093E+01 0.  1.
       13    1    4    4    0    0 -0.40407144866E+02  0.83711384595E+02  0.31155538610E+03  0.32512627066E+03  0.00000000000E+00 0. -1.
      -13    1    6    6    0    0 -0.50342107415E+02 -0.49463158242E+02  0.37023962423E+03  0.37690623655E+03  0.00000000000E+00 0.  1.
       14    1    6    6    0    0 -0.31164794239E+02  0.24016141487E+02  0.94401461263E+02  0.10227245641E+03  0.00000000000E+00 0. -1.
      -14    1    4    4    0    0  0.25097676417E+01  0.15964418357E+02  0.32736494014E+01  0.16488734563E+02  0.00000000000E+00 0.  1.
</event>
<event>
12   0  0.9284400E-04  0.2309883E+03  0.7546771E-02  0.1126065E+00
       21   -1    0    0  503  502  0.00000000000E+00  0.00000000000E+00  0.33991778802E+03  0.33991778802E+03  0.00000000000E+00 0.  1.
       21   -1    0    0  501  503  0.00000000000E+00  0.00000000000E+00 -0.33126295666E+03  0.33126295666E+03  0.00000000000E+00 0. -1.
        6    2    1    2  501    0  0.12402798314E+03 -0.86770961415E+02 -0.23941845983E+03  0.33268122195E+03  0.17448053238E+03 0.  0.
       24    2    3    3    0    0  0.49492400996E+02 -0.10216320087E+03 -0.91577504135E+02  0.16633365743E+03  0.79960171091E+02 0.  0.
       -6    2    1    2    0  502 -0.12402798314E+03  0.86770961415E+02  0.24807329119E+03  0.33849952273E+03  0.17357830722E+03 0.  0.
      -24    2    5    5    0    0 -0.42240008189E+01  0.74368311456E+02  0.10593101313E+03  0.15213070260E+03  0.79836603123E+02 0.  0.
        5    1    3    3  501    0  0.74535582147E+02  0.15392239457E+02 -0.14784095570E+03  0.16634756452E+03  0.46999998093E+01 0. -1.
       -5    1    5    5    0  502 -0.11980398232E+03  0.12402649960E+02  0.14214227806E+03  0.18636882013E+03  0.46999998093E+01 0.  1.
       13    1    6    6    0    0  0.47384008416E+01  0.29787065511E+02  0.10213943859E+03  0.10649970249E+03  0.00000000000E+00 0. -1.
      -13    1    4    4    0    0  0.46609720834E+02 -0.65353916516E+02 -0.15478689354E+02  0.81750781674E+02  0.00000000000E+00 0.  1.
       14    1    4    4    0    0  0.28826801622E+01 -0.36809284357E+02 -0.76098814781E+02  0.84582875754E+02  0.00000000000E+00 0. -1.
      -14    1    6    6    0    0 -0.89624016605E+01  0.44581245944E+02  0.37915745401E+01  0.45631000109E+02  0.00000000000E+00 0.  1.
</event>
<event>
12   0  0.9284400E-04  0.2409241E+03  0.7546771E-02  0.1119264E+00
       21   -1    0    0  503  502  0.00000000000E+00  0.00000000000E+00  0.54042306918E+03  0.54042306918E+03  0.00000000000E+00 0.  1.
       21   -1    0    0  501  503  0.00000000000E+00  0.00000000000E+00 -0.12264784917E+03  0.12264784917E+03  0.00000000000E+00 0.  1.
        6    2    1    2  501    0 -0.14883397267E+03  0.75865867338E+02  0.90936781064E+02  0.25703179183E+03  0.17288337865E+03 0.  0.
       24    2    3    3    0    0 -0.16110159867E+03  0.17916481887E+02  0.66590548722E+02  0.19281765827E+03  0.80433965117E+02 0.  0.
       -6    2    1    2    0  502  0.14883397267E+03 -0.75865867338E+02  0.32683843895E+03  0.40603912652E+03  0.17360076567E+03 0.  0.
      -24    2    5    5    0    0  0.10929417806E+03 -0.25022847579E+02  0.10379441373E+03  0.17383418428E+03  0.82907677829E+02 0.  0.
        5    1    3    3  501    0  0.12267625998E+02  0.57949385452E+02  0.24346232341E+02  0.64214133563E+02  0.46999998093E+01 0. -1.
       -5    1    5    5    0  502  0.39539794609E+02 -0.50843019759E+02  0.22304402522E+03  0.23220494224E+03  0.46999998093E+01 0.  1.
       13    1    6    6    0    0  0.58282616193E+02  0.19864323126E+02  0.17527921127E+02  0.64020955183E+02  0.00000000000E+00 0. -1.
      -13    1    4    4    0    0 -0.13251785484E+03  0.40691794914E+02  0.71438711769E+02  0.15594965073E+03  0.00000000000E+00 0.  1.
       14    1    4    4    0    0 -0.28583743834E+02 -0.22775313027E+02 -0.48481630467E+01  0.36868007540E+02  0.00000000000E+00 0. -1.
      -14    1    6    6    0    0  0.51011561870E+02 -0.44887170705E+02  0.86266492604E+02  0.10981322910E+03  0.00000000000E+00 0.  1.
</event>
<event>
12   0  0.9284400E-04  0.1846888E+03  0.7546771E-02  0.1163367E+00
       21   -1    0    0  501  502  0.00000000000E+00  0.00000000000E+00  0.31194946787E+02  0.31194946787E+02  0.00000000000E+00 0.  1.
       21   -1    0    0  502  503  0.00000000000E+00  0.00000000000E+00 -0.11464166522E+04  0.11464166522E+04  0.00000000000E+00 0.  1.
       -6    2    1    2    0  503  0.61458061054E+02  0.24830236173E+02 -0.68513103059E+03  0.70958753863E+03  0.17238419882E+03 0.  0.
      -24    2    3    3    0    0  0.13744549444E+02  0.70445196998E+02 -0.32685607185E+03  0.34525206150E+03  0.84927356253E+02 0.  0.
        6    2    1    2  501    0 -0.61458061054E+02 -0.24830236173E+02 -0.43009067480E+03  0.46802406034E+03  0.17226403747E+03 0.  0.
       24    2    5    5    0    0 -0.89251949752E+02  0.26466896805E+02 -0.24258213781E+03  0.27159229727E+03  0.79056152125E+02 0.  0.
        5    1    5    5  501    0  0.27793888698E+02 -0.51297132978E+02 -0.18750853699E+03  0.19643176307E+03  0.46999998093E+01 0. -1.
       -5    1    3    3    0  503  0.47713511610E+02 -0.45614960825E+02 -0.35827495874E+03  0.36433547713E+03  0.46999998093E+01 0.  1.
       13    1    4    4    0    0 -0.20517896242E+02  0.12378956194E+01 -0.19464823129E+02  0.28308934829E+02  0.00000000000E+00 0. -1.
      -13    1    6    6    0    0 -0.88648844599E+02  0.15803710067E+02 -0.24466638702E+03  0.26071059786E+03  0.00000000000E+00 0.  1.
       14    1    6    6    0    0 -0.60310515331E+00  0.10663186738E+02  0.20842492062E+01  0.10881699407E+02  0.00000000000E+00 0. -1.
      -14    1    4    4    0    0  0.34262445686E+02  0.69207301379E+02 -0.30739124873E+03  0.31694312667E+03  0.00000000000E+00 0.  1.
</event>
<event>
12   0  0.9284400E-04  0.1753924E+03  0.7546771E-02  0.1172338E+00
       -1   -1    0    0    0  501  0.00000000000E+00  0.00000000000E+00  0.51152255639E+02  0.51152255639E+02  0.00000000000E+00 0. -1.
        1   -1    0    0  502    0  0.00000000000E+00  0.00000000000E+00 -0.60448149001E+03  0.60448149001E+03  0.00000000000E+00 0.  1.
        6    2    1    2  502    0 -0.26940845118E+02  0.19046005978E+02 -0.25199919587E+03  0.30656552696E+03  0.17143590091E+03 0.  0.
       24    2    3    3    0    0  0.10903900093E+02 -0.44443978813E+02 -0.80624825158E+02  0.11987201383E+03  0.75991940221E+02 0.  0.
       -6    2    1    2    0  501  0.26940845118E+02 -0.19046005978E+02 -0.30133003850E+03  0.34906821869E+03  0.17309035131E+03 0.  0.
      -24    2    5    5    0    0  0.58536317311E+02 -0.88371123023E+00 -0.29496471551E+03  0.31177545600E+03  0.82295019188E+02 0.  0.
        5    1    3    3  502    0 -0.37844745211E+02  0.63489984791E+02 -0.17137437072E+03  0.18669351313E+03  0.46999998093E+01 0. -1.
       -5    1    5    5    0  501 -0.31595472193E+02 -0.18162294747E+02 -0.63653229938E+01  0.37292762684E+02  0.46999998093E+01 0.  1.
       13    1    6    6    0    0  0.61000776545E+02 -0.10940277967E+02 -0.10795392321E+03  0.12447824693E+03  0.00000000000E+00 0. -1.
      -13    1    4    4    0    0  0.30118876586E+02 -0.36365740816E+02 -0.86208540084E+02  0.98293062905E+02  0.00000000000E+00 0.  1.
       14    1    4    4    0    0 -0.19214976493E+02 -0.80782379967E+01  0.55837149255E+01  0.21578950927E+02  0.00000000000E+00 0. -1.
      -14    1    6    6    0    0 -0.24644592342E+01  0.10056566737E+02 -0.18701079229E+03  0.18729720908E+03  0.00000000000E+00 0.  1.
</event>
<event>
12   0  0.9284400E-04  0.1833372E+03  0.7546771E-02  0.1165401E+00
       21   -1    0    0  501  502  0.00000000000E+00  0.00000000000E+00  0.11535071743E+03  0.11535071743E+03  0.00000000000E+00 0.  1.
       21   -1    0    0  502  503  0.00000000000E+00  0.00000000000E+00 -0.66167105288E+03  0.66167105288E+03  0.00000000000E+00 0.  1.
       -6    2    1    2    0  503  0.46204059348E+02  0.34289291102E+02 -0.56475988560E+03  0.59275961640E+03  0.17058623587E+03 0.  0.
      -24    2    3    3    0    0  0.40181879486E+02  0.86568811270E+02 -0.33747301496E+03  0.35941260775E+03  0.78617073620E+02 0.  0.
        6    2    1    2  501    0 -0.46204059348E+02 -0.34289291102E+02  0.18439550149E+02  0.18426215390E+03  0.17407456381E+03 0.  0.
       24    2    5    5    0    0  0.24278135637E+02 -0.36817671444E+02 -0.31912401201E+02  0.97477699536E+02  0.80861188191E+02 0.  0.
        5    1    5    5  501    0 -0.70482194986E+02  0.25283803424E+01  0.50351951350E+02  0.86784454369E+02  0.46999998093E+01 0. -1.
       -5    1    3    3    0  503  0.60221798618E+01 -0.52279520168E+02 -0.22728687064E+03  0.23334700864E+03  0.46999998093E+01 0.  1.
       13    1    4    4    0    0  0.57748107623E+02  0.49529249615E+02 -0.15861377870E+03  0.17591566529E+03  0.00000000000E+00 0. -1.
      -13    1    6    6    0    0 -0.25950023366E+02  0.53811436381E+01 -0.94697343033E+01  0.28143139259E+02  0.00000000000E+00 0.  1.
       14    1    6    6    0    0  0.50228159004E+02 -0.42198815082E+02 -0.22442666898E+02  0.69334560277E+02  0.00000000000E+00 0. -1.
      -14    1    4    4    0    0 -0.17566228136E+02  0.37039561655E+02 -0.17885923626E+03  0.18349694247E+03  0.00000000000E+00 0.  1.
</event>
<event>
12   0  0.9284400E-04  0.2234730E+03  0.7546771E-02  0.1131984E+00
       21   -1    0    0  503  502  0.00000000000E+00  0.00000000000E+00  0.38107391263E+03  0.38107391263E+03  0.00000000000E+00 0. -1.
       21   -1    0    0  501  503  0.00000000000E+00  0.00000000000E+00 -0.20851953955E+03  0.20851953955E+03  0.00000000000E+00 0. -1.
        6    2    1    2  501    0 -0.13841273348E+03 -0.78762894727E+01  0.26881636713E+03  0.34957464223E+03  0.17527141960E+03 0.  0.
       24    2    3    3    0    0 -0.13738909596E+03 -0.56249466114E+02  0.24275422705E+03  0.29441725654E+03  0.75578701180E+02 0.  0.
       -6    2    1    2    0  502  0.13841273348E+03  0.78762894727E+01 -0.96261994041E+02  0.24001880995E+03  0.17065326515E+03 0.  0.
      -24    2    5    5    0    0  0.10361889480E+02  0.90344192227E+01 -0.73665573458E+02  0.10989944884E+03  0.80388324142E+02 0.  0.
        5    1    3    3  501    0 -0.10236375181E+01  0.48373176642E+02  0.26062140077E+02  0.55157385686E+02  0.46999998093E+01 0. -1.
       -5    1    5    5    0  502  0.12805084400E+03 -0.11581297500E+01 -0.22596420583E+02  0.13011936111E+03  0.46999998093E+01 0.  1.
       13    1    6    6    0    0  0.27188829540E+02  0.36117994143E+02 -0.60206862754E+02  0.75290160549E+02  0.00000000000E+00 0. -1.
      -13    1    4    4    0    0  0.28052330670E+01 -0.12639679572E+02  0.30169227640E+01  0.13294083466E+02  0.00000000000E+00 0.  1.
       14    1    4    4    0    0 -0.14019432903E+03 -0.43609786542E+02  0.23973730429E+03  0.28112317308E+03  0.00000000000E+00 0. -1.
      -14    1    6    6    0    0 -0.16826940060E+02 -0.27083574921E+02 -0.13458710704E+02  0.34609288292E+02  0.00000000000E+00 0.  1.
</event>
<event>
12   0  0.9284400E-04  0.1989969E+03  0.7546771E-02  0.1150786E+00
       21   -1    0    0  501  502  0.00000000000E+00  0.00000000000E+00  0.20823029122E+03  0.20823029122E+03  0.00000000000E+00 0. -1.
       21   -1    0    0  502  503  0.00000000000E+00  0.00000000000E+00 -0.25638413975E+03  0.25638413975E+03  0.00000000000E+00 0.  1.
       -6    2    1    2    0  503  0.80311169549E+02 -0.51745791301E+02 -0.14296274742E+03  0.24502673490E+03  0.17456300523E+03 0.  0.
      -24    2    3    3    0    0 -0.15990858819E+02 -0.17763726012E+02 -0.39813820936E+02  0.99800523554E+02  0.88338817269E+02 0.  0.
        6    2    1    2  501    0 -0.80311169549E+02  0.51745791301E+02  0.94808898886E+02  0.21958769607E+03  0.17350077258E+03 0.  0.
       24    2    5    5    0    0 -0.61734499936E+01 -0.25871983884E+02  0.63755099794E+02  0.10775143664E+03  0.82693338996E+02 0.  0.
        5    1    5    5  501    0 -0.74137719555E+02  0.77617775185E+02  0.31053799092E+02  0.11183625942E+03  0.46999998093E+01 0. -1.
       -5    1    3    3    0  503  0.96302028368E+02 -0.33982065289E+02 -0.10314892649E+03  0.14522621135E+03  0.46999998093E+01 0.  1.
       13    1    4    4    0    0  0.69425985425E+01  0.29411858853E+02 -0.36293608634E+02  0.47227991101E+02  0.00000000000E+00 0. -1.
      -13    1    6    6    0    0  0.16285695893E+02  0.25793560137E+02  0.23638952815E+02  0.38591860870E+02  0.00000000000E+00 0.  1.
       14    1    6    6    0    0 -0.22459145886E+02 -0.51665544021E+02  0.40116146979E+02  0.69159575775E+02  0.00000000000E+00 0. -1.
      -14    1    4    4    0    0 -0.22933457361E+02 -0.47175584865E+02 -0.35202123023E+01  0.52572532453E+02  0.00000000000E+00 0.  1.
</event>
<event>
12   0  0.9284400E-04  0.3125357E+03  0.7546771E-02  0.1079712E+00
       21   -1    0    0  503  502  0.00000000000E+00  0.00000000000E+00  0.95254986226E+02  0.95254986226E+02  0.00000000000E+00 0.  1.
       21   -1    0    0  501  503  0.00000000000E+00  0.00000000000E+00 -0.11666087163E+04  0.11666087163E+04  0.00000000000E+00 0.  1.
        6    2    1    2  501    0  0.24369580246E+03  0.78341428899E+02 -0.76344426758E+03  0.82313055357E+03  0.17079735041E+03 0.  0.
       24    2    3    3    0    0  0.24262665864E+03  0.10797221721E+03 -0.70013489730E+03  0.75306420610E+03  0.79944536538E+02 0.  0.
       -6    2    1    2    0  502 -0.24369580246E+03 -0.78341428899E+02 -0.30790946253E+03  0.43873314899E+03  0.17931401307E+03 0.  0.
      -24    2    5    5    0    0 -0.10803869240E+03 -0.88115444187E+02 -0.23205969444E+03  0.28293308416E+03  0.82235866652E+02 0.  0.
        5    1    3    3  501    0  0.10691438249E+01 -0.29630788314E+02 -0.63309370279E+02  0.70066347471E+02  0.46999998093E+01 0. -1.
       -5    1    5    5    0  502 -0.13565711006E+03  0.97740152879E+01 -0.75849768084E+02  0.15580006483E+03  0.46999998093E+01 0.  1.
       13    1    6    6    0    0 -0.48942390260E+02  0.74439639128E+01 -0.70602236108E+02  0.86229031692E+02  0.00000000000E+00 0. -1.
      -13    1    4    4    0    0  0.65348072546E+02  0.10548545703E+02 -0.26604232691E+03  0.27415353747E+03  0.00000000000E+00 0.  1.
       14    1    4    4    0    0  0.17727858609E+03  0.97423671511E+02 -0.43409257039E+03  0.47891066863E+03  0.00000000000E+00 0. -1.
      -14    1    6    6    0    0 -0.59096302145E+02 -0.95559408099E+02 -0.16145745834E+03  0.19670405247E+03  0.00000000000E+00 0.  1.
</event>
<event>
12   0  0.9284400E-04  0.1985091E+03  0.7546771E-02  0.1151478E+00
       21   -1    0    0  501  502  0.00000000000E+00  0.00000000000E+00  0.87316945229E+02  0.87316945229E+02  0.00000000000E+00 0.  1.
       21   -1    0    0  502  503  0.00000000000E+00  0.00000000000E+00 -0.49005315705E+03  0.49005315705E+03  0.00000000000E+00 0. -1.
       -6    2    1    2    0  503 -0.67750324741E+02  0.57343131601E+02 -0.28867925588E+03  0.35034494483E+03  0.17755992325E+03 0.  0.
      -24    2    3    3    0    0 -0.82501875225E+02  0.92486282580E+02 -0.16880284366E+03  0.22446764938E+03  0.80814934947E+02 0.  0.
        6    2    1    2  501    0  0.67750324741E+02 -0.57343131601E+02 -0.11405695594E+03  0.22702515746E+03  0.17508024353E+03 0.  0.
       24    2    5    5    0    0  0.48881081315E+02 -0.76893917001E+02 -0.12161492884E+02  0.12146447847E+03  0.79395736911E+02 0.  0.
        5    1    5    5  501    0  0.18869243426E+02  0.19550785400E+02 -0.10189546306E+03  0.10556067898E+03  0.46999998093E+01 0. -1.
       -5    1    3    3    0  503  0.14751550484E+02 -0.35143150979E+02 -0.11987641222E+03  0.12587729544E+03  0.46999998093E+01 0.  1.
       13    1    4    4    0    0 -0.31664069105E+02  0.21103701411E+02 -0.11616579765E+03  0.12223940457E+03  0.00000000000E+00 0. -1.
      -13    1    6    6    0    0 -0.11581644382E+02 -0.44784925759E+02 -0.23801233040E+02  0.52022329399E+02  0.00000000000E+00 0.  1.
       14    1    6    6    0    0  0.60462725697E+02 -0.32108991242E+02  0.11639740157E+02  0.69442149076E+02  0.00000000000E+00 0. -1.
      -14    1    4    4    0    0 -0.50837806120E+02  0.71382581168E+02 -0.52637046013E+02  0.10222824482E+03  0.00000000000E+00 0.  1.
</event>
<event>
12   0  0.9284400E-04  0.3387589E+03  0.7546771E-02  0.1067400E+00
       21   -1    0    0  503  502  0.00000000000E+00  0.00000000000E+00  0.45770936660E+03  0.45770936660E+03  0.00000000000E+00 0. -1.
       21   -1    0    0  501  503  0.00000000000E+00  0.00000000000E+00 -0.48813896155E+03  0.48813896155E+03  0.00000000000E+00 0. -1.
        6    2    1    2  501    0  0.24364689059E+03  0.15773972759E+03  0.31496834058E+03  0.46205360695E+03  0.17332873731E+03 0.  0.
       24    2    3    3    0    0  0.94865212686E+02  0.12650002218E+03  0.11818550180E+03  0.21334196165E+03  0.80903124636E+02 0.  0.
       -6    2    1    2    0  502 -0.24364689059E+03 -0.15773972759E+03 -0.34539793553E+03  0.48379472119E+03  0.17467675698E+03 0.  0.
      -24    2    5    5    0    0 -0.21340185332E+03 -0.18733183278E+03 -0.29211864498E+03  0.41559481087E+03  0.82171634413E+02 0.  0.
        5    1    3    3  501    0  0.14878167790E+03  0.31239705414E+02  0.19678283878E+03  0.24871164531E+03  0.46999998093E+01 0. -1.
       -5    1    5    5    0  502 -0.30245037261E+02  0.29592105181E+02 -0.53279290553E+02  0.68199910323E+02  0.46999998093E+01 0.  1.
       13    1    6    6    0    0 -0.57765456349E+02 -0.11044743691E+02 -0.76952330767E+02  0.96852958246E+02  0.00000000000E+00 0. -1.
      -13    1    4    4    0    0  0.55160183202E+02  0.11540124515E+03  0.11498108967E+03  0.17199053513E+03  0.00000000000E+00 0.  1.
       14    1    4    4    0    0  0.39705029484E+02  0.11098777025E+02  0.32044121283E+01  0.41351426516E+02  0.00000000000E+00 0. -1.
      -14    1    6    6    0    0 -0.15563639698E+03 -0.17628708908E+03 -0.21516631421E+03  0.31874185262E+03  0.00000000000E+00 0.  1.
</event>
<event>
12   0  0.9284400E-04  0.2609610E+03  0.7546771E-02  0.1107080E+00
       21   -1    0    0  501  502  0.00000000000E+00  0.00000000000E+00  0.29649288956E+03  0.29649288956E+03  0.00000000000E+00 0. -1.
       21   -1    0    0  502  503  0.00000000000E+00  0.00000000000E+00 -0.41963169848E+03  0.41963169848E+03  0.00000000000E+00 0. -1.
       -6    2    1    2    0  503  0.19140695353E+03 -0.14045562412E+02  0.18099860815E+03  0.31758640195E+03  0.17682399970E+03 0.  0.
      -24    2    3    3    0    0  0.15698753518E+03  0.52475331339E+02  0.10972307470E+03  0.21408752596E+03  0.79972301761E+02 0.  0.
        6    2    1    2  501    0 -0.19140695353E+03  0.14045562412E+02 -0.30413741706E+03  0.39853818608E+03  0.17175336277E+03 0.  0.
       24    2    5    5    0    0 -0.18868884794E+03 -0.34306474976E+02 -0.23898784203E+03  0.31722481238E+03  0.82073000357E+02 0.  0.
        5    1    5    5  501    0 -0.27181055923E+01  0.48352037389E+02 -0.65149575033E+02  0.81313373702E+02  0.46999998093E+01 0. -1.
       -5    1    3    3    0  503  0.34419418350E+02 -0.66520893751E+02  0.71275533447E+02  0.10349887599E+03  0.46999998093E+01 0.  1.
       13    1    4    4    0    0  0.55047110941E+02  0.31210708964E+02  0.86870930699E+02  0.10747488719E+03  0.00000000000E+00 0. -1.
      -13    1    6    6    0    0 -0.12472045762E+03  0.23476710426E+01 -0.99936168096E+02  0.15983723535E+03  0.00000000000E+00 0.  1.
       14    1    6    6    0    0 -0.63968390316E+02 -0.36654146019E+02 -0.13905167394E+03  0.15738757703E+03  0.00000000000E+00 0. -1.
      -14    1    4    4    0    0  0.10194042424E+03  0.21264622374E+02  0.22852144001E+02  0.10661263877E+03  0.00000000000E+00 0.  1.
</event>
<event>
12   0  0.9284400E-04  0.2585586E+03  0.7546771E-02  0.1108161E+00
       21   -1    0    0  503  502  0.00000000000E+00  0.00000000000E+00  0.15616578338E+04  0.15616578338E+04  0.00000000000E+00 0. -1.
       21   -1    0    0  501  503  0.00000000000E+00  0.00000000000E+00 -0.62097371004E+02  0.62097371004E+02  0.00000000000E+00 0. -1.
        6    2    1    2  501    0 -0.18924028875E+03 -0.28164785465E+02  0.29637445049E+03  0.39330696755E+03  0.17391783633E+03 0.  0.
       24    2    3    3    0    0 -0.78791305691E+02 -0.73551179265E+02  0.19972456831E+03  0.23961183970E+03  0.76851055386E+02 0.  0.
       -6    2    1    2    0  502  0.18924028875E+03  0.28164785465E+02  0.12031860123E+04  0.12304482372E+04  0.17245620408E+03 0.  0.
      -24    2    5    5    0    0  0.15031718461E+03  0.27070342897E+02  0.11573197026E+04  0.11700991345E+04  0.80093888900E+02 0.  0.
        5    1    3    3  501    0 -0.11044898306E+03  0.45386393800E+02  0.96649882181E+02  0.15369512785E+03  0.46999998093E+01 0. -1.
       -5    1    5    5    0  502  0.38923104139E+02  0.10944425679E+01  0.45866309687E+02  0.60349102751E+02  0.46999998093E+01 0.  1.
       13    1    6    6    0    0  0.11103260547E+03 -0.15266059344E+02  0.66155200917E+03  0.67097865308E+03  0.00000000000E+00 0. -1.
      -13    1    4    4    0    0 -0.91716846669E+02 -0.48833561538E+02  0.16610790334E+03  0.19592991667E+03  0.00000000000E+00 0.  1.
       14    1    4    4    0    0  0.12925540978E+02 -0.24717617727E+02  0.33616664972E+02  0.43681923029E+02  0.00000000000E+00 0. -1.
      -14    1    6    6    0    0  0.39284579144E+02  0.42336402241E+02  0.49576769342E+03  0.49912048140E+03  0.00000000000E+00 0.  1.
</event>
<event>
12   0  0.9284400E-04  0.1813020E+03  0.7546771E-02  0.1166549E+00
        2   -1    0    0  502    0  0.00000000000E+00  0.00000000000E+00  0.21466921809E+03  0.21466921809E+03  0.00000000000E+00 0.  1.
       -2   -1    0    0    0  501  0.00000000000E+00  0.00000000000E+00 -0.17129844866E+03  0.17129844866E+03  0.00000000000E+00 0. -1.
        6    2    1    2  502    0 -0.53913268565E+02  0.92416576561E+01  0.84543434956E+02  0.19998747183E+03  0.17278700105E+03 0.  0.
       24    2    3    3    0    0 -0.54634498756E+02  0.56264023747E+02  0.10012968812E+03  0.15022157616E+03  0.79937467308E+02 0.  0.
       -6    2    1    2    0  501  0.53913268565E+02 -0.92416576561E+01 -0.41172665525E+02  0.18598019492E+03  0.17292020053E+03 0.  0.
      -24    2    5    5    0    0 -0.40852156082E+01  0.18291182931E+01  0.36853079296E+02  0.88018502915E+02  0.79806470550E+02 0.  0.
        5    1    3    3  502    0  0.72123019151E+00 -0.47022366091E+02 -0.15586253165E+02  0.49765895669E+02  0.46999998093E+01 0. -1.
       -5    1    5    5    0  501  0.57998484173E+02 -0.11070775949E+02 -0.78025744820E+02  0.97961692000E+02  0.46999998093E+01 0.  1.
       13    1    6    6    0    0  0.20990490192E+02  0.33253075918E+02  0.22651078435E+02  0.45381043298E+02  0.00000000000E+00 0. -1.
      -13    1    4    4    0    0 -0.27605714905E+02  0.54894597508E+01  0.86699759721E+02  0.91154034466E+02  0.00000000000E+00 0.  1.
       14    1    4    4    0    0 -0.27028783851E+02  0.50774563996E+02  0.13429928400E+02  0.59067541698E+02  0.00000000000E+00 0. -1.
      -14    1    6    6    0    0 -0.25075705800E+02 -0.31423957625E+02  0.14202000861E+02  0.42637459618E+02  0.00000000000E+00 0.  1.
</event>
<event>
12   0  0.9284400E-04  0.1832421E+03  0.7546771E-02  0.1164702E+00
        1   -1    0    0  502    0  0.00000000000E+00  0.00000000000E+00  0.14219604537E+04  0.14219604537E+04  0.00000000000E+00 0. -1.
       -1   -1    0    0    0  501  0.00000000000E+00  0.00000000000E+00 -0.24459371252E+02  0.24459371252E+02  0.00000000000E+00 0.  1.
        6    2    1    2  502    0  0.26385879333E+02  0.57141547815E+02  0.82931343857E+03  0.84909185317E+03  0.17098194232E+03 0.  0.
       24    2    3    3    0    0 -0.98304218092E+01  0.47053848442E+02  0.22011841786E+03  0.23871979826E+03  0.78894374670E+02 0.  0.
       -6    2    1    2    0  501 -0.26385879333E+02 -0.57141547815E+02  0.56818764386E+03  0.59732797177E+03  0.17321124707E+03 0.  0.
      -24    2    5    5    0    0 -0.65729815599E+02 -0.13156145607E+02  0.48065196038E+03  0.49165277692E+03  0.78756924788E+02 0.  0.
        5    1    3    3  502    0  0.36216301142E+02  0.10087699372E+02  0.60919502072E+03  0.61037205491E+03  0.46999998093E+01 0. -1.
       -5    1    5    5    0  501  0.39343936266E+02 -0.43985402207E+02  0.87535683478E+02  0.10567519486E+03  0.46999998093E+01 0.  1.
       13    1    6    6    0    0 -0.89263098135E+01  0.29791111646E+02  0.11499742305E+03  0.11912848798E+03  0.00000000000E+00 0. -1.
      -13    1    4    4    0    0 -0.33645121462E+02  0.50797334580E+02  0.10764987608E+03  0.12369664190E+03  0.00000000000E+00 0.  1.
       14    1    4    4    0    0  0.23814699653E+02 -0.37434861374E+01  0.11246854178E+03  0.11502315635E+03  0.00000000000E+00 0. -1.
      -14    1    6    6    0    0 -0.56803505785E+02 -0.42947257253E+02  0.36565453733E+03  0.37252428894E+03  0.00000000000E+00 0.  1.
</event>
<event>
12   0  0.9284400E-04  0.3297884E+03  0.7546771E-02  0.1071231E+00
       -2   -1    0    0    0  501  0.00000000000E+00  0.00000000000E+00  0.14117389214E+03  0.14117389214E+03  0.00000000000E+00 0.  1.
        2   -1    0    0  502    0  0.00000000000E+00  0.00000000000E+00 -0.11260494482E+04  0.11260494482E+04  0.00000000000E+00 0. -1.
        6    2    1    2  502    0  0.15694454967E+03 -0.23278867957E+03 -0.84852523484E+03  0.91036043064E+03  0.17302854829E+03 0.  0.
       24    2    3    3    0    0  0.12203370283E+03 -0.79858835360E+02 -0.34660022127E+03  0.38447345256E+03  0.80115317685E+02 0.  0.
       -6    2    1    2    0  501 -0.15694454967E+03  0.23278867957E+03 -0.13635032120E+03  0.35686290966E+03  0.17302475312E+03 0.  0.
      -24    2    5    5    0    0 -0.68173169697E+02  0.34187096110E+02 -0.51610816556E+02  0.12335526417E+03  0.82076221933E+02 0.  0.
        5    1    3    3  502    0  0.34910846839E+02 -0.15292984421E+03 -0.50192501357E+03  0.52588697809E+03  0.46999998093E+01 0. -1.
       -5    1    5    5    0  501 -0.88771379972E+02  0.19860158346E+03 -0.84739504648E+02  0.23350764549E+03  0.46999998093E+01 0.  1.
       13    1    6    6    0    0 -0.12974989475E+02 -0.98418448435E+01 -0.50155321481E+02  0.52732992848E+02  0.00000000000E+00 0. -1.
      -13    1    4    4    0    0  0.88915997555E+02 -0.79577224289E+02 -0.18964486883E+03  0.22406196803E+03  0.00000000000E+00 0.  1.
       14    1    4    4    0    0  0.33117705275E+02 -0.28161107134E+00 -0.15695535244E+03  0.16041148453E+03  0.00000000000E+00 0. -1.
      -14    1    6    6    0    0 -0.55198180222E+02  0.44028940953E+02 -0.14554950749E+01  0.70622271325E+02  0.00000000000E+00 0.  1.
</event>
<event>
12   0  0.9284400E-04  0.2531869E+03  0.7546771E-02  0.1111403E+00
       21   -1    0    0  503  502  0.00000000000E+00  0.00000000000E+00  0.20928708074E+03  0.20928708074E+03  0.00000000000E+00 0.  1.
       21   -1    0    0  501  503  0.00000000000E+00  0.00000000000E+00 -0.39284851746E+03  0.39284851746E+03  0.00000000000E+00 0.  1.
        6    2    1    2  501    0 -0.11436663606E+03 -0.14386281797E+03 -0.23378737442E+03  0.34461591997E+03  0.17414751797E+03 0.  0.
       24    2    3    3    0    0 -0.89996026529E+02 -0.36517674059E+02 -0.18689685271E+03  0.22487571137E+03  0.78777069638E+02 0.  0.
       -6    2    1    2    0  502  0.11436663606E+03  0.14386281797E+03  0.50225937693E+02  0.25751967823E+03  0.17325559737E+03 0.  0.
      -24    2    5    5    0    0  0.10877973081E+03  0.30981221803E+02  0.36222176808E+02  0.14353869920E+03  0.80612940255E+02 0.  0.
        5    1    3    3  501    0 -0.24370609536E+02 -0.10734514391E+03 -0.46890521712E+02  0.11974020860E+03  0.46999998093E+01 0. -1.
       -5    1    5    5    0  502  0.55869052592E+01  0.11288159617E+03  0.14003760885E+02  0.11398097903E+03  0.46999998093E+01 0.  1.
       13    1    6    6    0    0  0.78031146968E+02  0.22392705108E+02 -0.15605686610E+02  0.82666986118E+02  0.00000000000E+00 0. -1.
      -13    1    4    4    0    0 -0.10157155602E+03 -0.25197059447E+02 -0.13686710556E+03  0.17229125741E+03  0.00000000000E+00 0.  1.
       14    1    4    4    0    0  0.11575529486E+02 -0.11320614611E+02 -0.50029747147E+02  0.52584453954E+02  0.00000000000E+00 0. -1.
      -14    1    6    6    0    0  0.30748583838E+02  0.85885166952E+01  0.51827863418E+02  0.60871713082E+02  0.00000000000E+00 0.  1.
</event>
<event>
12   0  0.9284400E-04  0.2356620E+03  0.7546771E-02  0.1122749E+00
       21   -1    0    0  503  502  0.00000000000E+00  0.00000000000E+00  0.52043319992E+03  0.52043319992E+03  0.00000000000E+00 0.  1.
       21   -1    0    0  501  503  0.00000000000E+00  0.00000000000E+00 -0.17204670020E+03  0.17204670020E+03  0.00000000000E+00 0. -1.
        6    2    1    2  501    0  0.62625887060E+02 -0.14694618830E+03 -0.39355520795E+02  0.23873936234E+03  0.17300994805E+03 0.  0.
       24    2    3    3    0    0 -0.20606198224E+02 -0.46926659335E+02  0.16299630766E+02  0.97137554125E+02  0.80890665077E+02 0.  0.
       -6    2    1    2    0  502 -0.62625887060E+02  0.14694618830E+03  0.38774202051E+03  0.45374053778E+03  0.17326689577E+03 0.  0.
      -24    2    5    5    0    0 -0.81451137174E+02  0.58405339624E+02  0.13898621609E+03  0.18898515604E+03  0.79704137278E+02 0.  0.
        5    1    3    3  501    0  0.83232085283E+02 -0.10001952897E+03 -0.55655151561E+02  0.14160180821E+03  0.46999998093E+01 0. -1.
       -5    1    5    5    0  502  0.18825250114E+02  0.88540848679E+02  0.24875580442E+03  0.26475538174E+03  0.46999998093E+01 0.  1.
       13    1    6    6    0    0 -0.15525370294E+02  0.55355989196E+02  0.40086399075E+02  0.70087388690E+02  0.00000000000E+00 0. -1.
      -13    1    4    4    0    0  0.61909261802E+01 -0.50285506540E+02  0.37309998837E+02  0.62920551080E+02  0.00000000000E+00 0.  1.
       14    1    4    4    0    0 -0.26797124404E+02  0.33588472055E+01 -0.21010368071E+02  0.34217003044E+02  0.00000000000E+00 0. -1.
      -14    1    6    6    0    0 -0.65925766880E+02  0.30493504279E+01  0.98899817010E+02  0.11889776735E+03  0.00000000000E+00 0.  1.
</event>
<event>
12   0  0.9284400E-04  0.2342516E+03  0.7546771E-02  0.1123690E+00
       21   -1    0    0  501  502  0.00000000000E+00  0.00000000000E+00  0.84321504212E+02  0.84321504212E+02  0.00000000000E+00 0.  1.
       21   -1    0    0  502  503  0.00000000000E+00  0.00000000000E+00 -0.93332090703E+03  0.93332090703E+03  0.00000000000E+00 0. -1.
        6    2    1    2  501    0 -0.15728237861E+03  0.48712784766E+00 -0.14444813932E+03  0.27516932329E+03  0.17353647344E+03 0.  0.
       24    2    3    3    0    0 -0.14963405650E+03  0.14279091085E+02 -0.43123016185E+02  0.17251658023E+03  0.72856932561E+02 0.  0.
       -6    2    1    2    0  503  0.15728237861E+03 -0.48712784766E+00 -0.70455126350E+03  0.74247308795E+03  0.17359671518E+03 0.  0.
      -24    2    5    5    0    0  0.63990194300E+02  0.95476765602E+01 -0.17371959891E+03  0.20339194835E+03  0.83689201884E+02 0.  0.
        5    1    3    3  501    0 -0.76483221026E+01 -0.13791963237E+02 -0.10132512313E+03  0.10265274305E+03  0.46999998093E+01 0. -1.
       -5    1    5    5    0  503  0.93292184307E+02 -0.10034804408E+02 -0.53083166459E+03  0.53908113961E+03  0.46999998093E+01 0.  1.
       13    1    6    6    0    0  0.81118749555E+02 -0.74393356829E+01 -0.13909126641E+03  0.16118925410E+03  0.00000000000E+00 0. -1.
      -13    1    4    4    0    0 -0.15871135423E+02 -0.86785522331E+01  0.16308837920E+02  0.24355459404E+02  0.00000000000E+00 0.  1.
       14    1    4    4    0    0 -0.13376292108E+03  0.22957643318E+02 -0.59431854105E+02  0.14816112083E+03  0.00000000000E+00 0. -1.
      -14    1    6    6    0    0 -0.17128555255E+02  0.16987012243E+02 -0.34628332498E+02  0.42202694247E+02  0.00000000000E+00 0.  1.
</event>
<event>
12   0  0.9284400E-04  0.2049201E+03  0.7546771E-02  0.1146935E+00
       21   -1    0    0  501  502  0.00000000000E+00  0.00000000000E+00  0.82428885036E+02  0.82428885036E+02  0.00000000000E+00 0. -1.
       21   -1    0    0  502  503  0.00000000000E+00  0.00000000000E+00 -0.70354218345E+03  0.70354218345E+03  0.00000000000E+00 0. -1.
       -6    2    1    2    0  503 -0.10603120356E+03 -0.94754712118E+01 -0.92881012491E+02  0.21938338588E+03  0.16783857375E+03 0.  0.
      -24    2    3    3    0    0 -0.75535512940E+02 -0.15566423244E+02 -0.12962548959E+03  0.17101672962E+03  0.80597934281E+02 0.  0.
        6    2    1    2  501    0  0.10603120356E+03  0.94754712118E+01 -0.52823228592E+03  0.56658768260E+03  0.17509955312E+03 0.  0.
       24    2    5    5    0    0  0.18937036580E+02  0.62650100219E+02 -0.24046613823E+03  0.26122825365E+03  0.78310857868E+02 0.  0.
        5    1    5    5  501    0  0.87094166976E+02 -0.53174629007E+02 -0.28776614769E+03  0.30535942895E+03  0.46999998093E+01 0. -1.
       -5    1    3    3    0  503 -0.30495690616E+02  0.60909520318E+01  0.36744477098E+02  0.48366656265E+02  0.46999998093E+01 0.  1.
       13    1    4    4    0    0 -0.21309023103E+02 -0.42149046838E+02 -0.35091213766E+02  0.58838846849E+02  0.00000000000E+00 0. -1.
      -13    1    6    6    0    0  0.15109056505E+02  0.76528956645E+02 -0.23144802606E+03  0.24423995079E+03  0.00000000000E+00 0.  1.
       14    1    6    6    0    0  0.38279800744E+01 -0.13878856426E+02 -0.90181121672E+01  0.16988302864E+02  0.00000000000E+00 0. -1.
      -14    1    4    4    0    0 -0.54226489838E+02  0.26582623594E+02 -0.94534275823E+02  0.11217788277E+03  0.00000000000E+00 0.  1.
</event>
<event>
12   0  0.9284400E-04  0.2056039E+03  0.7546771E-02  0.1145206E+00
       21   -1    0    0  501  502  0.00000000000E+00  0.00000000000E+00  0.30398269309E+03  0.30398269309E+03  0.00000000000E+00 0. -1.
       21   -1    0    0  502  503  0.00000000000E+00  0.00000000000E+00 -0.22592449094E+03  0.22592449094E+03  0.00000000000E+00 0.  1.
        6    2    1    2  501    0  0.17604939763E+02  0.10984695502E+03  0.20362930998E+03  0.28899006198E+03  0.17226163998E+03 0.  0.
       24    2    3    3    0    0  0.48437499091E+02  0.27046602747E+01  0.73165357586E+02  0.11731289136E+03  0.77817982652E+02 0.  0.
       -6    2    1    2    0  503 -0.17604939763E+02 -0.10984695502E+03 -0.12557110783E+03  0.24091712205E+03  0.17290653297E+03 0.  0.
      -24    2    5    5    0    0 -0.63402480549E+02 -0.31046945694E+02 -0.35536633462E+02  0.11271746220E+03  0.80365332022E+02 0.  0.
        5    1    3    3  501    0 -0.30832559328E+02  0.10714229475E+03  0.13046395240E+03  0.17167717062E+03  0.46999998093E+01 0. -1.
       -5    1    5    5    0  503  0.45797540787E+02 -0.78800009328E+02 -0.90034474363E+02  0.12819965984E+03  0.46999998093E+01 0.  1.
       13    1    6    6    0    0 -0.50818263884E+02  0.19836266159E+02 -0.17990810465E+02  0.57442516140E+02  0.00000000000E+00 0. -1.
      -13    1    4    4    0    0 -0.19386744464E+02  0.12327912904E+02  0.14911631392E+02  0.27389414894E+02  0.00000000000E+00 0.  1.
       14    1    4    4    0    0  0.67824243554E+02 -0.96232526289E+01  0.58253726195E+02  0.89923476470E+02  0.00000000000E+00 0. -1.
      -14    1    6    6    0    0 -0.12584216665E+02 -0.50883211854E+02 -0.17545822997E+02  0.55274946063E+02  0.00000000000E+00 0.  1.
</event>
<event>
12   0  0.9284400E-04  0.1762781E+03  0.7546771E-02  0.1172396E+00
       21   -1    0    0  501  502  0.00000000000E+00  0.00000000000E+00  0.17208169725E+03  0.17208169725E+03  0.00000000000E+00 0.  1.
       21   -1    0    0  502  503  0.00000000000E+00  0.00000000000E+00 -0.18920564494E+03  0.18920564494E+03  0.00000000000E+00 0.  1.
       -6    2    1    2    0  503  0.44928290911E+01 -0.37733220390E+02  0.37846381734E+02  0.17663707994E+03  0.16829833025E+03 0.  0.
      -24    2    3    3    0    0 -0.60134963932E+02 -0.10164266077E+02  0.31747151809E+02  0.10595405880E+03  0.80615474547E+02 0.  0.
        6    2    1    2  501    0 -0.44928290911E+01  0.37733220390E+02 -0.54970329422E+02  0.18465026226E+03  0.17213367132E+03 0.  0.
       24    2    5    5    0    0 -0.61951407693E+02  0.48700683783E+02 -0.40086372955E+02  0.12410775103E+03  0.87098123126E+02 0.  0.
        5    1    5    5  501    0  0.57458578602E+02 -0.10967463393E+02 -0.14883956467E+02  0.60542511234E+02  0.46999998093E+01 0. -1.
       -5    1    3    3    0  503  0.64627793024E+02 -0.27568954313E+02  0.60992299251E+01  0.70683021136E+02  0.46999998093E+01 0.  1.
       13    1    4    4    0    0 -0.73579109447E+02 -0.27770840819E+02  0.28033246310E+02  0.83492322075E+02  0.00000000000E+00 0. -1.
      -13    1    6    6    0    0 -0.18273821545E+02  0.65914696620E+02 -0.35143586884E+02  0.76900919913E+02  0.00000000000E+00 0.  1.
       14    1    6    6    0    0 -0.43677586148E+02 -0.17214012837E+02 -0.49427860715E+01  0.47206831114E+02  0.00000000000E+00 0. -1.
      -14    1    4    4    0    0  0.13444145514E+02  0.17606574742E+02  0.37139054988E+01  0.22461736727E+02  0.00000000000E+00 0.  1.
</event>
<event>
12   0  0.9284400E-04  0.1962789E+03  0.7546771E-02  0.1154122E+00
       21   -1    0    0  503  502  0.00000000000E+00  0.00000000000E+00  0.89001644060E+02  0.89001644060E+02  0.00000000000E+00 0. -1.
       21   -1    0    0  501  503  0.00000000000E+00  0.00000000000E+00 -0.42271564419E+03  0.42271564419E+03  0.00000000000E+00 0.  1.
        6    2    1    2  501    0  0.84505337120E+02  0.38520835441E+02 -0.15214425924E+03  0.24834109800E+03  0.17291737498E+03 0.  0.
       24    2    3    3    0    0  0.16541293136E+02 -0.21976018179E+02 -0.13129486614E+03  0.15487576879E+03  0.77405439931E+02 0.  0.
       -6    2    1    2    0  502 -0.84505337120E+02 -0.38520835441E+02 -0.18156974089E+03  0.26337619025E+03  0.16665665309E+03 0.  0.
      -24    2    5    5    0    0 -0.12579832005E+02 -0.72816241599E+02 -0.90558207508E+02  0.14231982992E+03  0.81201526022E+02 0.  0.
        5    1    3    3  501    0  0.67964043984E+02  0.60496853620E+02 -0.20849393103E+02  0.93465329206E+02  0.46999998093E+01 0. -1.
       -5    1    5    5    0  502 -0.71925505115E+02  0.34295406158E+02 -0.91011533378E+02  0.12105636033E+03  0.46999998093E+01 0.  1.
       13    1    6    6    0    0  0.21044184420E+02 -0.37684259094E+02 -0.44007235597E+01  0.43385797783E+02  0.00000000000E+00 0. -1.
      -13    1    4    4    0    0  0.29528999784E+02  0.18587239838E+02 -0.85450484190E+02  0.92299688847E+02  0.00000000000E+00 0.  1.
       14    1    4    4    0    0 -0.12987706648E+02 -0.40563258017E+02 -0.45844381947E+02  0.62576079943E+02  0.00000000000E+00 0. -1.
      -14    1    6    6    0    0 -0.33624016425E+02 -0.35131982505E+02 -0.86157483948E+02  0.98934032140E+02  0.00000000000E+00 0.  1.
</event>
<event>
12   0  0.9284400E-04  0.2389687E+03  0.7546771E-02  0.1120529E+00
       21   -1    0    0  503  502  0.00000000000E+00  0.00000000000E+00  0.36995501106E+03  0.36995501106E+03  0.00000000000E+00 0. -1.
       21   -1    0    0  501  503  0.00000000000E+00  0.00000000000E+00 -0.20321211056E+03  0.20321211056E+03  0.00000000000E+00 0. -1.
        6    2    1    2  501    0 -0.92440783937E+02  0.13454031875E+03 -0.57439530183E+02  0.24550297256E+03  0.17414365910E+03 0.  0.
       24    2    3    3    0    0 -0.67614749166E+02  0.14662953385E+03  0.15909973125E+01  0.18016405385E+03  0.79903570161E+02 0.  0.
       -6    2    1    2    0  502  0.92440783937E+02 -0.13454031875E+03  0.22418243068E+03  0.32766414905E+03  0.17452689318E+03 0.  0.
      -24    2    5    5    0    0  0.13029791729E+03 -0.94611197326E+02  0.14661542251E+03  0.23244740662E+03  0.81282770736E+02 0.  0.
        5    1    3    3  501    0 -0.24826034772E+02 -0.12089215102E+02 -0.59030527495E+02  0.65338918715E+02  0.46999998093E+01 0. -1.
       -5    1    5    5    0  502 -0.37857133356E+02 -0.39929121422E+02  0.77567008175E+02  0.95216742429E+02  0.46999998093E+01 0.  1.
       13    1    6    6    0    0  0.69877902161E+02 -0.58183203920E+02  0.13217624050E+03  0.16043305452E+03  0.00000000000E+00 0. -1.
      -13    1    4    4    0    0 -0.58437971376E+02  0.77529452503E+02  0.34559247984E+02  0.10305413201E+03  0.00000000000E+00 0.  1.
       14    1    4    4    0    0 -0.91767777898E+01  0.69100081347E+02 -0.32968250672E+02  0.77109921833E+02  0.00000000000E+00 0. -1.
      -14    1    6    6    0    0  0.60420015133E+02 -0.36427993406E+02  0.14439182007E+02  0.72014352106E+02  0.00000000000E+00 0.  1.
</event>
<event>
12   0  0.9284400E-04  0.1759657E+03  0.7546771E-02  0.1172102E+00
       21   -1    0    0  501  502  0.00000000000E+00  0.00000000000E+00  0.10540318673E+04  0.10540318673E+04  0.00000000000E+00 0. -1.
       21   -1    0    0  502  503  0.00000000000E+00  0.00000000000E+00 -0.40103293438E+02  0.40103293438E+02  0.00000000000E+00 0. -1.
       -6    2    1    2    0  503 -0.29701623798E+02 -0.19096043317E+02  0.21968000326E+03  0.28062750345E+03  0.17101358582E+03 0.  0.
      -24    2    3    3    0    0  0.35082863961E+02 -0.52476561756E+02  0.13027503457E+03  0.16518649129E+03  0.79563781918E+02 0.  0.
        6    2    1    2  501    0  0.29701623798E+02  0.19096043317E+02  0.79424857065E+03  0.81350765733E+03  0.17238640096E+03 0.  0.
       24    2    5    5    0    0  0.50073939449E+02  0.43301662823E+02  0.28124617312E+03  0.29950912317E+03  0.78891517598E+02 0.  0.
        5    1    5    5  501    0 -0.20372315651E+02 -0.24205619506E+02  0.51300239752E+03  0.51399853416E+03  0.46999998093E+01 0. -1.
       -5    1    3    3    0  503 -0.64784487760E+02  0.33380518439E+02  0.89404968687E+02  0.11544101216E+03  0.46999998093E+01 0.  1.
       13    1    4    4    0    0  0.14992326710E+02  0.91144411822E+01 -0.22351367390E+01  0.17687247793E+02  0.00000000000E+00 0. -1.
      -13    1    6    6    0    0  0.62689718127E+02  0.35399668916E+02  0.27332291155E+03  0.28264562847E+03  0.00000000000E+00 0.  1.
       14    1    6    6    0    0 -0.12615778678E+02  0.79019939068E+01  0.79232615794E+01  0.16863494698E+02  0.00000000000E+00 0. -1.
      -14    1    4    4    0    0  0.20090537251E+02 -0.61591002938E+02  0.13251017131E+03  0.14749924349E+03  0.00000000000E+00 0.  1.
</event>
<event>
12   0  0.9284400E-04  0.2825108E+03  0.7546771E-02  0.1094337E+00
       21   -1    0    0  503  502  0.00000000000E+00  0.00000000000E+00  0.16025112884E+03  0.16025112884E+03  0.00000000000E+00 0.  1.
       21   -1    0    0  501  503  0.00000000000E+00  0.00000000000E+00 -0.81502347044E+03  0.81502347044E+03  0.00000000000E+00 0.  1.
        6    2    1    2  501    0 -0.19070235073E+03 -0.11608857370E+03 -0.63159866023E+03  0.69190260286E+03  0.17311383747E+03 0.  0.
       24    2    3    3    0    0 -0.16882205256E+03 -0.46948315284E+02 -0.33505345215E+03  0.38658265065E+03  0.80500312108E+02 0.  0.
       -6    2    1    2    0  502  0.19070235073E+03  0.11608857370E+03 -0.23173681368E+02  0.28337199641E+03  0.17297030186E+03 0.  0.
      -24    2    5    5    0    0  0.48384828199E+02 -0.73072436998E+01  0.65189288238E+00  0.93449504439E+02  0.79610913229E+02 0.  0.
        5    1    3    3  501    0 -0.21880298165E+02 -0.69140258421E+02 -0.29654520808E+03  0.30531995221E+03  0.46999998093E+01 0. -1.
       -5    1    5    5    0  502  0.14231752253E+03  0.12339581740E+03 -0.23825574250E+02  0.18992249198E+03  0.46999998093E+01 0.  1.
       13    1    6    6    0    0  0.61798745223E+02 -0.25134349199E+02 -0.12024755108E+02  0.67789491487E+02  0.00000000000E+00 0. -1.
      -13    1    4    4    0    0 -0.39344923321E+02 -0.49464976054E+02 -0.10333336925E+03  0.12113047531E+03  0.00000000000E+00 0.  1.
       14    1    4    4    0    0 -0.12947712924E+03  0.25166607700E+01 -0.23172008289E+03  0.26545217534E+03  0.00000000000E+00 0. -1.
      -14    1    6    6    0    0 -0.13413917023E+02  0.17827105499E+02  0.12676647990E+02  0.25660012951E+02  0.00000000000E+00 0.  1.
</event>
<event>
12   0  0.9284400E-04  0.1921398E+03  0.7546771E-02  0.1156675E+00
       21   -1    0    0  501  502  0.00000000000E+00  0.00000000000E+00  0.23102478897E+04  0.23102478897E+04  0.00000000000E+00 0. -1.
       21   -1    0    0  502  503  0.00000000000E+00  0.00000000000E+00 -0.16151055272E+02  0.16151055272E+02  0.00000000000E+00 0. -1.
       -6    2    1    2    0  503 -0.68921968503E+02  0.44839123785E+02  0.10096865961E+04  0.10276967566E+04  0.17301102932E+03 0.  0.
      -24    2    3    3    0    0 -0.79398495785E+02  0.87114923621E+02  0.85282787748E+03  0.86483562403E+03  0.82049600357E+02 0.  0.
        6    2    1    2  501    0  0.68921968503E+02 -0.44839123785E+02  0.12844102383E+04  0.12987021884E+04  0.17365750543E+03 0.  0.
       24    2    5    5    0    0  0.57210959660E+02 -0.15826461675E+02  0.36920947465E+03  0.38295472864E+03  0.82553723290E+02 0.  0.
        5    1    5    5  501    0  0.11711008842E+02 -0.29012662110E+02  0.91520076368E+03  0.91574745980E+03  0.46999998093E+01 0. -1.
       -5    1    3    3    0  503  0.10476527282E+02 -0.42275799837E+02  0.15685871866E+03  0.16286113255E+03  0.46999998093E+01 0.  1.
       13    1    4    4    0    0 -0.81844741384E+02  0.46975882416E+02  0.43729245008E+03  0.44735889632E+03  0.00000000000E+00 0. -1.
      -13    1    6    6    0    0  0.67567689937E+02  0.99985068042E+01  0.19683851494E+03  0.20835249897E+03  0.00000000000E+00 0.  1.
       14    1    6    6    0    0 -0.10356730277E+02 -0.25824968479E+02  0.17237095970E+03  0.17460222967E+03  0.00000000000E+00 0. -1.
      -14    1    4    4    0    0  0.24462455989E+01  0.40139041205E+02  0.41553542741E+03  0.41747672771E+03  0.00000000000E+00 0.  1.
</event>
<event>
12   0  0.9284400E-04  0.2796447E+03  0.7546771E-02  0.1096001E+00
       21   -1    0    0  501  502  0.00000000000E+00  0.00000000000E+00  0.78756467374E+03  0.78756467374E+03  0.00000000000E+00 0. -1.
       21   -1    0    0  502  503  0.00000000000E+00  0.00000000000E+00 -0.16149672420E+03  0.16149672420E+03  0.00000000000E+00 0. -1.
       -6    2    1    2    0  503 -0.97326261514E+02  0.19526594376E+03  0.18107237097E+02  0.28023032466E+03  0.17492847926E+03 0.  0.
      -24    2    3    3    0    0 -0.13403929849E+03  0.12190466320E+03  0.16060683020E+02  0.19803541636E+03  0.78312196654E+02 0.  0.
        6    2    1    2  501    0  0.97326261514E+02 -0.19526594376E+03  0.60796071244E+03  0.66883107327E+03  0.17354419243E+03 0.  0.
       24    2    5    5    0    0  0.10534671437E+03 -0.77680221559E+02  0.41517680602E+03  0.44282564346E+03  0.81182653336E+02 0.  0.
        5    1    5    5  501    0 -0.80204528538E+01 -0.11758572220E+03  0.19278390642E+03  0.22600542981E+03  0.46999998093E+01 0. -1.
       -5    1    3    3    0  503  0.36713036978E+02  0.73361280555E+02  0.20465540767E+01  0.82194908301E+02  0.46999998093E+01 0.  1.
       13    1    4    4    0    0 -0.17306887841E+02  0.51905904573E+02 -0.18228066923E+02  0.57671602371E+02  0.00000000000E+00 0. -1.
      -13    1    6    6    0    0  0.39956983008E+02  0.65606699163E+01  0.63290686491E+02  0.75135303802E+02  0.00000000000E+00 0.  1.
       14    1    6    6    0    0  0.65389731359E+02 -0.84240891475E+02  0.35188611952E+03  0.36769033966E+03  0.00000000000E+00 0. -1.
      -14    1    4    4    0    0 -0.11673241065E+03  0.69998758628E+02  0.34288749943E+02  0.14036381399E+03  0.00000000000E+00 0.  1.
</event>
<event>
11   0  0.9284400E-04  0.2549149E+03  0.7546771E-02  0.1115560E+00
       21   -1    0    0  501  502  0.00000000000E+00  0.00000000000E+00  0.32097117431E+03  0.32097117431E+03  0.00000000000E+00 0.  1.
       21   -1    0    0  502  503  0.00000000000E+00  0.00000000000E+00 -0.49701613962E+03  0.49701613962E+03  0.00000000000E+00 0.  1.
       -6    2    1    2    0  503  0.48088408587E+02  0.13593488899E+03  0.24164521376E+03  0.32865442332E+03  0.16979555809E+03 0.  0.
      -24    2    3    3    0    0 -0.26556949053E+02  0.61682980932E+02  0.61963855864E+02  0.12034514450E+03  0.78315852111E+02 0.  0.
       24    2    1    2    0    0 -0.75308650294E+01 -0.21341841630E+02 -0.32675626093E+03  0.33745284482E+03  0.81194706023E+02 0.  0.
        5    1    1    2  501    0 -0.40557543557E+02 -0.11459304736E+03 -0.90933918140E+02  0.15188004579E+03  0.46999998093E+01 0. -1.
       -5    1    3    3    0  503  0.74645357640E+02  0.74251908063E+02  0.17968135789E+03  0.20830927882E+03  0.46999998093E+01 0.  1.
       13    1    4    4    0    0  0.26017624343E+02  0.16025526223E+02  0.32868459376E+02  0.44878389999E+02  0.00000000000E+00 0. -1.
      -13    1    5    5    0    0 -0.42529034768E+02 -0.15121358258E+02 -0.13266705850E+03  0.14013537271E+03  0.00000000000E+00 0.  1.
       14    1    5    5    0    0  0.34998169738E+02 -0.62204833720E+01 -0.19408920243E+03  0.19731747211E+03  0.00000000000E+00 0. -1.
      -14    1    4    4    0    0 -0.52574573397E+02  0.45657454709E+02  0.29095396489E+02  0.75466754503E+02  0.00000000000E+00 0.  1.
</event>
<event>
12   0  0.9284400E-04  0.2297822E+03  0.7546771E-02  0.1126924E+00
       21   -1    0    0  503  502  0.00000000000E+00  0.00000000000E+00  0.59190821422E+03  0.59190821422E+03  0.00000000000E+00 0.  1.
       21   -1    0    0  501  503  0.00000000000E+00  0.00000000000E+00 -0.92323917666E+02  0.92323917666E+02  0.00000000000E+00 0. -1.
        6    2    1    2  501    0  0.27405879984E+02  0.14800073589E+03  0.18443515271E+03  0.29464587606E+03  0.17362190715E+03 0.  0.
       24    2    3    3    0    0 -0.39032191495E+02  0.13434769202E+03  0.13695560582E+03  0.21171928009E+03  0.80594052338E+02 0.  0.
       -6    2    1    2    0  502 -0.27405879984E+02 -0.14800073589E+03  0.31514914385E+03  0.38958625583E+03  0.17263594000E+03 0.  0.
      -24    2    5    5    0    0 -0.20186704829E+02 -0.10386037656E+03  0.95850974288E+02  0.16572409962E+03  0.84158107456E+02 0.  0.
        5    1    3    3  501    0  0.66438071479E+02  0.13653043876E+02  0.47479546892E+02  0.82926595976E+02  0.46999998093E+01 0. -1.
       -5    1    5    5    0  502 -0.72191751552E+01 -0.44140359329E+02  0.21929816956E+03  0.22386215621E+03  0.46999998093E+01 0.  1.
       13    1    6    6    0    0 -0.42553546630E+02 -0.17566110140E+02  0.31677481935E+02  0.55882335473E+02  0.00000000000E+00 0. -1.
      -13    1    4    4    0    0 -0.48624147337E+02  0.60810825255E+02  0.10560584442E+03  0.13120540594E+03  0.00000000000E+00 0.  1.
       14    1    4    4    0    0  0.95919558420E+01  0.73536866763E+02  0.31349761394E+02  0.80513874144E+02  0.00000000000E+00 0. -1.
      -14    1    6    6    0    0  0.22366841801E+02 -0.86294266424E+02  0.64173492353E+02  0.10984176415E+03  0.00000000000E+00 0.  1.
</event>
<event>
11   0  0.9284400E-04  0.3558668E+03  0.7546771E-02  0.1082315E+00
       21   -1    0    0  503  502  0.00000000000E+00  0.00000000000E+00  0.69168746291E+03  0.69168746291E+03  0.00000000000E+00 0.  1.
       21   -1    0    0  501  503  0.00000000000E+00  0.00000000000E+00 -0.13166925410E+03  0.13166925410E+03  0.00000000000E+00 0.  1.
        6    2    1    2  501    0  0.51448139811E+02 -0.71671571544E+02  0.48664427567E+02  0.20036081403E+03  0.17318344041E+03 0.  0.
       24    2    3    3    0    0  0.82622629843E+02 -0.92290106820E+01  0.63603048562E+02  0.12883337432E+03  0.75106703783E+02 0.  0.
      -24    2    1    2    0    0 -0.90189441004E+02 -0.94802605507E+02  0.37159519711E+03  0.40215865095E+03  0.80789360301E+02 0.  0.
        5    1    3    3  501    0 -0.31174490032E+02 -0.62442560862E+02 -0.14938620995E+02  0.71527439708E+02  0.46999998093E+01 0. -1.
       -5    1    1    2    0  502  0.38741301193E+02  0.16647417705E+03  0.13975858413E+03  0.22083725202E+03  0.46999998093E+01 0.  1.
       13    1    5    5    0    0 -0.47839904109E+02 -0.67928450561E+02  0.31833601515E+03  0.32899961909E+03  0.00000000000E+00 0. -1.
      -13    1    4    4    0    0  0.48073893204E+02 -0.99728047579E+01 -0.76052433819E+01  0.49682952503E+02  0.00000000000E+00 0.  1.
       14    1    4    4    0    0  0.34548736639E+02  0.74379407582E+00  0.71208291944E+02  0.79150421822E+02  0.00000000000E+00 0. -1.
      -14    1    5    5    0    0 -0.42349536895E+02 -0.26874154945E+02  0.53259181964E+02  0.73159031860E+02  0.00000000000E+00 0.  1.
</event>
<event>
11   0  0.9284400E-04  0.1803388E+03  0.7546771E-02  0.1167903E+00
       21   -1    0    0  501  502  0.00000000000E+00  0.00000000000E+00  0.82319151808E+02  0.82319151808E+02  0.00000000000E+00 0. -1.
       21   -1    0    0  502  503  0.00000000000E+00  0.00000000000E+00 -0.40670042078E+03  0.40670042078E+03  0.00000000000E+00 0. -1.
       -6    2    1    2    0  503 -0.74099814020E+01  0.47588787304E+02 -0.21065098723E+03  0.27730112925E+03  0.17378859962E+03 0.  0.
        6    2    1    2  501    0  0.74099814020E+01 -0.47588787304E+02 -0.11373028174E+03  0.21171844334E+03  0.17196081462E+03 0.  0.
       24    2    4    4    0    0  0.11550838675E+02 -0.97834248093E+02 -0.70388875182E+02  0.14506770779E+03  0.79906721366E+02 0.  0.
        5    1    4    4  501    0 -0.41408572728E+01  0.50245460789E+02 -0.43341406559E+02  0.66650735552E+02  0.46999998093E+01 0. -1.
       -5    1    3    3    0  503  0.39540866106E+02  0.34758772627E+02 -0.21895926854E+03  0.22524853750E+03  0.46999998093E+01 0.  1.
       13    1    3    3    0    0 -0.29892398200E+02  0.43891993490E+01 -0.22339018368E+01  0.30295393355E+02  0.00000000000E+00 0. -1.
      -13    1    5    5    0    0 -0.13751968804E+02 -0.20022186904E+02 -0.57259295008E+02  0.62198323766E+02  0.00000000000E+00 0.  1.
       14    1    5    5    0    0  0.25302807479E+02 -0.77812061188E+02 -0.13129580174E+02  0.82869384022E+02  0.00000000000E+00 0. -1.
      -14    1    3    3    0    0 -0.17058449308E+02  0.84408153274E+01  0.10542183152E+02  0.21757198390E+02  0.00000000000E+00 0.  1.
</event>
<event>
12   0  0.9284400E-04  0.2172015E+03  0.7546771E-02  0.1136076E+00
       21   -1    0    0  501  502  0.00000000000E+00  0.00000000000E+00  0.44080797387E+03  0.44080797387E+03  0.00000000000E+00 0. -1.
       21   -1    0    0  502  503  0.00000000000E+00  0.00000000000E+00 -0.10692144908E+03  0.10692144908E+03  0.00000000000E+00 0. -1.
       -6    2    1    2    0  503  0.12929028659E+03 -0.22809408828E+02  0.15722233183E+03  0.26775308499E+03  0.17244305019E+03 0.  0.
      -24    2    3    3    0    0  0.11423463093E+03  0.41511845535E+02  0.13420816545E+03  0.19764147124E+03  0.79230898371E+02 0.  0.
        6    2    1    2  501    0 -0.12929028659E+03  0.22809408828E+02  0.17666419297E+03  0.27997633796E+03  0.17303255590E+03 0.  0.
       24    2    5    5    0    0 -0.73817376745E+02 -0.35206426892E+01  0.18844128293E+03  0.21727621685E+03  0.78977447821E+02 0.  0.
        5    1    5    5  501    0 -0.55472909849E+02  0.26330051517E+02 -0.11777089961E+02  0.62700121102E+02  0.46999998093E+01 0. -1.
       -5    1    3    3    0  503  0.15055655666E+02 -0.64321254363E+02  0.23014166372E+02  0.70111613748E+02  0.46999998093E+01 0.  1.
       13    1    4    4    0    0  0.16321359762E+02 -0.22650794768E+02  0.22934108033E+02  0.36130577069E+02  0.00000000000E+00 0. -1.
      -13    1    6    6    0    0 -0.32407616655E+02  0.37466709703E+02  0.77830314191E+02  0.92258147393E+02  0.00000000000E+00 0.  1.
       14    1    6    6    0    0 -0.41409760089E+02 -0.40987352393E+02  0.11061096874E+03  0.12501806946E+03  0.00000000000E+00 0. -1.
      -14    1    4    4    0    0  0.97913271166E+02  0.64162640303E+02  0.11127405742E+03  0.16151089417E+03  0.00000000000E+00 0.  1.
</event>
<event>
12   0  0.9284400E-04  0.2342957E+03  0.7546771E-02  0.1123952E+00
       21   -1    0    0  501  502  0.00000000000E+00  0.00000000000E+00  0.23039166094E+03  0.23039166094E+03  0.00000000000E+00 0. -1.
       21   -1    0    0  502  503  0.00000000000E+00  0.00000000000E+00 -0.25019417593E+03  0.25019417593E+03  0.00000000000E+00 0. -1.
       -6    2    1    2    0  503 -0.11930481971E+03 -0.10356439127E+03 -0.66077512308E+02  0.24176408710E+03  0.17065876196E+03 0.  0.
      -24    2    3    3    0    0 -0.10171503588E+03 -0.12303881333E+02 -0.12328696582E+02  0.13429824899E+03  0.85945848666E+02 0.  0.
        6    2    1    2  501    0  0.11930481971E+03  0.10356439127E+03  0.46274997318E+02  0.23882174977E+03  0.17301800381E+03 0.  0.
       24    2    5    5    0    0  0.35238154681E+02  0.10160400239E+03  0.68548639822E+02  0.15170543418E+03  0.82161559694E+02 0.  0.
        5    1    5    5  501    0  0.84066665025E+02  0.19603888760E+01 -0.22273642504E+02  0.87116315588E+02  0.46999998093E+01 0. -1.
       -5    1    3    3    0  503 -0.17589783823E+02 -0.91260509936E+02 -0.53748815726E+02  0.10746583810E+03  0.46999998093E+01 0.  1.
       13    1    4    4    0    0 -0.60991413942E+02 -0.47247497296E+02 -0.20960799599E+02  0.79947693495E+02  0.00000000000E+00 0. -1.
      -13    1    6    6    0    0 -0.26494634423E+02  0.27082746047E+02  0.26266706981E+02  0.46101851180E+02  0.00000000000E+00 0.  1.
       14    1    6    6    0    0  0.61732789105E+02  0.74521256346E+02  0.42281932841E+02  0.10560358300E+03  0.00000000000E+00 0. -1.
      -14    1    4    4    0    0 -0.40723621941E+02  0.34943615963E+02  0.86321030169E+01  0.54350555499E+02  0.00000000000E+00 0.  1.
</event>
<event>
12   0  0.9284400E-04  0.2042552E+03  0.7546771E-02  0.1147622E+00
       21   -1    0    0  501  502  0.00000000000E+00  0.00000000000E+00  0.33944437971E+03  0.33944437971E+03  0.00000000000E+00 0. -1.
       21   -1    0    0  502  503  0.00000000000E+00  0.00000000000E+00 -0.12073536977E+03  0.12073536977E+03  0.00000000000E+00 0.  1.
       -6    2    1    2    0  503 -0.93158031792E+02  0.22366931383E+02  0.78702325524E+02  0.21254687550E+03  0.17263666973E+03 0.  0.
      -24    2    3    3    0    0 -0.12734848974E+03 -0.82336532008E+01  0.55108800350E+02  0.16073830845E+03  0.80711789998E+02 0.  0.
        6    2    1    2  501    0  0.93158031792E+02 -0.22366931383E+02  0.14000668441E+03  0.24763287398E+03  0.18039254443E+03 0.  0.
       24    2    5    5    0    0  0.11711227556E+03  0.25470190728E+02  0.11414059611E+03  0.18802297070E+03  0.89221892655E+02 0.  0.
        5    1    5    5  501    0 -0.23954243766E+02 -0.47837122111E+02  0.25866088301E+02  0.59609903275E+02  0.46999998093E+01 0. -1.
       -5    1    3    3    0  503  0.34190457945E+02  0.30600584584E+02  0.23593525174E+02  0.51808567050E+02  0.46999998093E+01 0.  1.
       13    1    4    4    0    0 -0.13129478928E+02 -0.21821971551E+02  0.36061245886E+02  0.44147424773E+02  0.00000000000E+00 0. -1.
      -13    1    6    6    0    0  0.71847374174E+02  0.23239776204E+02  0.12055442785E+03  0.14225154639E+03  0.00000000000E+00 0.  1.
       14    1    6    6    0    0  0.45264901384E+02  0.22304145241E+01 -0.64138317446E+01  0.45771424316E+02  0.00000000000E+00 0. -1.
      -14    1    4    4    0    0 -0.11421901081E+03  0.13588318351E+02  0.19047554464E+02  0.11659088368E+03  0.00000000000E+00 0.  1.
</event>
<event>
12   0  0.9284400E-04  0.2163698E+03  0.7546771E-02  0.1136673E+00
       21   -1    0    0  503  502  0.00000000000E+00  0.00000000000E+00  0.45660848900E+03  0.45660848900E+03  0.00000000000E+00 0. -1.
       21   -1    0    0  501  503  0.00000000000E+00  0.00000000000E+00 -0.10250236151E+03  0.10250236151E+03  0.00000000000E+00 0. -1.
        6    2    1    2  501    0  0.12677823462E+03 -0.24155693427E+02  0.18617366842E+03  0.28544090345E+03  0.17366535708E+03 0.  0.
       24    2    3    3    0    0  0.12502133476E+03  0.36966460830E+02  0.10596171502E+03  0.18447035376E+03  0.76187748321E+02 0.  0.
       -6    2    1    2    0  502 -0.12677823462E+03  0.24155693427E+02  0.16793245908E+03  0.27366994707E+03  0.17331390833E+03 0.  0.
      -24    2    5    5    0    0 -0.11882459173E+03 -0.42088124015E+02  0.11194140584E+03  0.18644270462E+03  0.79619783859E+02 0.  0.
        5    1    3    3  501    0  0.17568998565E+01 -0.61122154257E+02  0.80211953401E+02  0.10097054969E+03  0.46999998093E+01 0. -1.
       -5    1    5    5    0  502 -0.79536428884E+01  0.66243817442E+02  0.55991053238E+02  0.87227242450E+02  0.46999998093E+01 0.  1.
       13    1    6    6    0    0 -0.86164797780E+02 -0.66116129593E+01  0.30209455581E+02  0.91546146881E+02  0.00000000000E+00 0. -1.
      -13    1    4    4    0    0  0.10441200281E+03  0.16720707311E+02  0.41069781909E+02  0.11343798028E+03  0.00000000000E+00 0.  1.
       14    1    4    4    0    0  0.20609331945E+02  0.20245753519E+02  0.64891933107E+02  0.71032373472E+02  0.00000000000E+00 0. -1.
      -14    1    6    6    0    0 -0.32659793949E+02 -0.35476511056E+02  0.81731950257E+02  0.94896557736E+02  0.00000000000E+00 0.  1.
</event>
<event>
12   0  0.9284400E-04  0.2092623E+03  0.7546771E-02  0.1142855E+00
       21   -1    0    0  501  502  0.00000000000E+00  0.00000000000E+00  0.12284757867E+03  0.12284757867E+03  0.00000000000E+00 0.  1.
       21   -1    0    0  502  503  0.00000000000E+00  0.00000000000E+00 -0.37449211006E+03  0.37449211006E+03  0.00000000000E+00 0.  1.
       -6    2    1    2    0  503 -0.48028279452E+02 -0.10637240892E+03 -0.18973158920E+03  0.28246906486E+03  0.17369194471E+03 0.  0.
      -24    2    3    3    0    0 -0.17355634218E+02 -0.45500768268E+02 -0.16621938796E+02  0.96363694538E+02  0.81474749608E+02 0.  0.
        6    2    1    2  501    0  0.48028279452E+02  0.10637240892E+03 -0.61912942181E+02  0.21487062386E+03  0.16945314274E+03 0.  0.
       24    2    5    5    0    0  0.77282234442E+02  0.32878840006E+02 -0.34927872021E+01  0.11642214465E+03  0.80550321670E+02 0.  0.
        5    1    5    5  501    0 -0.29253954990E+02  0.73493568913E+02 -0.58420154979E+02  0.98448479217E+02  0.46999998093E+01 0. -1.
       -5    1    3    3    0  503 -0.30672645234E+02 -0.60871640651E+02 -0.17310965041E+03  0.18610537032E+03  0.46999998093E+01 0.  1.
       13    1    4    4    0    0 -0.17332114821E+01  0.22527436056E+02  0.52920755560E+01  0.23205504971E+02  0.00000000000E+00 0. -1.
      -13    1    6    6    0    0  0.44369312795E+02  0.25040624236E+02 -0.41374132505E+02  0.65631452982E+02  0.00000000000E+00 0.  1.
       14    1    6    6    0    0  0.32912921648E+02  0.78382157705E+01  0.37881345303E+02  0.50790691665E+02  0.00000000000E+00 0. -1.
      -14    1    4    4    0    0 -0.15622422736E+02 -0.68028204324E+02 -0.21914014352E+02  0.73158189567E+02  0.00000000000E+00 0.  1.
</event>
<event>
12   0  0.9284400E-04  0.1731720E+03  0.7546771E-02  0.1174892E+00
       21   -1    0    0  503  502  0.00000000000E+00  0.00000000000E+00  0.72099166285E+02  0.72099166285E+02  0.00000000000E+00 0. -1.
       21   -1    0    0  501  503  0.00000000000E+00  0.00000000000E+00 -0.43944337509E+03  0.43944337509E+03  0.00000000000E+00 0. -1.
        6    2    1    2  501    0 -0.76366644196E+01 -0.14226162071E+01 -0.24702376871E+03  0.30167743548E+03  0.17299765978E+03 0.  0.
       24    2    3    3    0    0  0.26461147226E+02 -0.52335757542E+02 -0.93272582672E+02  0.13609867499E+03  0.79899003910E+02 0.  0.
       -6    2    1    2    0  502  0.76366644196E+01  0.14226162071E+01 -0.12032044010E+03  0.20986510590E+03  0.17177314076E+03 0.  0.
      -24    2    5    5    0    0  0.36185336043E+01  0.23515159503E+02 -0.15028366513E+03  0.17212771467E+03  0.80478032046E+02 0.  0.
        5    1    3    3  501    0 -0.34097811645E+02  0.50913141335E+02 -0.15375118603E+03  0.16557876049E+03  0.46999998093E+01 0. -1.
       -5    1    5    5    0  502  0.40181308153E+01 -0.22092543296E+02  0.29963225025E+02  0.37737391227E+02  0.46999998093E+01 0.  1.
       13    1    6    6    0    0 -0.34708129976E+02  0.22114249166E+02 -0.10504904848E+03  0.11282285623E+03  0.00000000000E+00 0. -1.
      -13    1    4    4    0    0 -0.17850687933E+02 -0.59921993147E+00  0.30538193701E+01  0.18119932035E+02  0.00000000000E+00 0.  1.
       14    1    4    4    0    0  0.44311835158E+02 -0.51736537611E+02 -0.96326402042E+02  0.11797874296E+03  0.00000000000E+00 0. -1.
      -14    1    6    6    0    0  0.38326663580E+02  0.14009103367E+01 -0.45234616652E+02  0.59304858440E+02  0.00000000000E+00 0.  1.
</event>
<event>
12   0  0.9284400E-04  0.2384348E+03  0.7546771E-02  0.1120860E+00
       21   -1    0    0  503  502  0.00000000000E+00  0.00000000000E+00  0.16046953438E+03  0.16046953438E+03  0.00000000000E+00 0. -1.
       21   -1    0    0  501  503  0.00000000000E+00  0.00000000000E+00 -0.35792232206E+03  0.35792232206E+03  0.00000000000E+00 0.  1.
        6    2    1    2  501    0  0.57667573770E+02  0.15313800657E+03 -0.12553294937E+03  0.26946180927E+03  0.17341956970E+03 0.  0.
       24    2    3    3    0    0  0.26151403749E+02  0.71638663876E+02  0.67396708763E+01  0.11086310846E+03  0.80182364485E+02 0.  0.
       -6    2    1    2    0  502 -0.57667573770E+02 -0.15313800657E+03 -0.71919838317E+02  0.24893004717E+03  0.17325388054E+03 0.  0.
      -24    2    5    5    0    0 -0.88361534388E+02 -0.94640044864E+02 -0.33593189398E+01  0.15360551960E+03  0.82576460180E+02 0.  0.
        5    1    3    3  501    0  0.31516170022E+02  0.81499342693E+02 -0.13227262025E+03  0.15859870081E+03  0.46999998093E+01 0. -1.
       -5    1    5    5    0  502  0.30693960618E+02 -0.58497961705E+02 -0.68560519377E+02  0.95324527575E+02  0.46999998093E+01 0.  1.
       13    1    6    6    0    0 -0.98834336172E+02 -0.79474434716E+02 -0.20459589976E+02  0.12846402844E+03  0.00000000000E+00 0. -1.
      -13    1    4    4    0    0 -0.94267111433E+01 -0.65169047915E+01 -0.18142000789E+02  0.21458451101E+02  0.00000000000E+00 0.  1.
       14    1    4    4    0    0  0.35578114892E+02  0.78155568667E+02  0.24881671665E+02  0.89404657361E+02  0.00000000000E+00 0. -1.
      -14    1    6    6    0    0  0.10472801783E+02 -0.15165610149E+02  0.17100271036E+02  0.25141491163E+02  0.00000000000E+00 0.  1.
</event>
<event>
11   0  0.9284400E-04  0.1754244E+03  0.7546771E-02  0.1172819E+00
       21   -1    0    0  501  502  0.00000000000E+00  0.00000000000E+00  0.23728207297E+03  0.23728207297E+03  0.00000000000E+00 0.  1.
       21   -1    0    0  502  503  0.00000000000E+00  0.00000000000E+00 -0.14016974466E+03  0.14016974466E+03  0.00000000000E+00 0.  1.
       -6    2    1    2    0  503 -0.38379163469E+01 -0.22588715241E+02  0.10398677589E+03  0.20392883000E+03  0.17392164467E+03 0.  0.
      -24    2    3    3    0    0 -0.27184263188E+02 -0.75074750308E+02  0.45959761555E+02  0.12214215517E+03  0.80194788417E+02 0.  0.
        6    2    1    2  501    0  0.38379163469E+01  0.22588715241E+02 -0.68744475883E+01  0.17352298763E+03  0.17186619664E+03 0.  0.
        5    1    5    5  501    0  0.32775655941E+02  0.10975097716E+02  0.74508868175E+02  0.82270029945E+02  0.46999998093E+01 0. -1.
       -5    1    3    3    0  503  0.23346346841E+02  0.52486035067E+02  0.58027014340E+02  0.81786674827E+02  0.46999998093E+01 0.  1.
       13    1    4    4    0    0 -0.34784722749E+02 -0.50599364276E+02 -0.84667744495E+01  0.61983537100E+02  0.00000000000E+00 0. -1.
      -13    1    5    5    0    0 -0.24486208469E+02  0.30135013664E+01 -0.29420986329E+02  0.38395963749E+02  0.00000000000E+00 0.  1.
       14    1    5    5    0    0 -0.44515311248E+01  0.86001161593E+01 -0.51962329435E+02  0.52856993933E+02  0.00000000000E+00 0. -1.
      -14    1    4    4    0    0  0.76004595614E+01 -0.24475386032E+02  0.54426536004E+02  0.60158618073E+02  0.00000000000E+00 0.  1.
</event>
<event>
12   0  0.9284400E-04  0.2503299E+03  0.7546771E-02  0.1113586E+00
       21   -1    0    0  503  502  0.00000000000E+00  0.00000000000E+00  0.19135399271E+03  0.19135399271E+03  0.00000000000E+00 0. -1.
       21   -1    0    0  501  503  0.00000000000E+00  0.00000000000E+00 -0.58849468493E+03  0.58849468493E+03  0.00000000000E+00 0.  1.
        6    2    1    2  501    0  0.13158590248E+03 -0.12406092295E+03 -0.46091847267E+03  0.52451012756E+03  0.17308689477E+03 0.  0.
       24    2    3    3    0    0  0.98106443126E+02 -0.16004127063E+02 -0.32164663018E+03  0.34502229666E+03  0.75517045888E+02 0.  0.
       -6    2    1    2    0  502 -0.13158590248E+03  0.12406092295E+03  0.63777780452E+02  0.25533855007E+03  0.16859480283E+03 0.  0.
      -24    2    5    5    0    0 -0.15593910579E+03  0.73094539349E+02  0.55406638018E+02  0.19804267943E+03  0.80567927498E+02 0.  0.
        5    1    3    3  501    0  0.33479459349E+02 -0.10805679588E+03 -0.13927184248E+03  0.17948783090E+03  0.46999998093E+01 0. -1.
       -5    1    5    5    0  502  0.24353203317E+02  0.50966383599E+02  0.83711424335E+01  0.57295870643E+02  0.46999998093E+01 0.  1.
       13    1    6    6    0    0 -0.25591631125E+02  0.17166692793E+02  0.46681094291E+02  0.55935243713E+02  0.00000000000E+00 0. -1.
      -13    1    4    4    0    0  0.58837347535E+02 -0.46167868446E+02 -0.17769112363E+03  0.19278859136E+03  0.00000000000E+00 0.  1.
       14    1    4    4    0    0  0.39269095591E+02  0.30163741384E+02 -0.14395550656E+03  0.15223370530E+03  0.00000000000E+00 0. -1.
      -14    1    6    6    0    0 -0.13034747467E+03  0.55927846556E+02  0.87255437274E+01  0.14210743572E+03  0.00000000000E+00 0.  1.
</event>
<event>
12   0  0.9284400E-04  0.1886560E+03  0.7546771E-02  0.1159679E+00
       -2   -1    0    0    0  501  0.00000000000E+00  0.00000000000E+00  0.17737572599E+02  0.17737572599E+02  0.00000000000E+00 0.  1.
        2   -1    0    0  502    0  0.00000000000E+00  0.00000000000E+00 -0.22809942371E+04  0.22809942371E+04  0.00000000000E+00 0. -1.
        6    2    1    2  502    0 -0.73535768417E+02 -0.15989759975E+02 -0.73389508913E+03  0.75780032716E+03  0.17319397314E+03 0.  0.
       24    2    3    3    0    0  0.39785040941E+01 -0.58223908894E+02 -0.43325115047E+03  0.44442985371E+03  0.80034264064E+02 0.  0.
       -6    2    1    2    0  501  0.73535768417E+02  0.15989759975E+02 -0.15293615754E+04  0.15409314825E+04  0.17279995371E+03 0.  0.
      -24    2    5    5    0    0  0.51982918013E+02  0.73102091847E+02 -0.11899328243E+04  0.11960252476E+04  0.80561324958E+02 0.  0.
        5    1    3    3  502    0 -0.77514272511E+02  0.42234148919E+02 -0.30064393866E+03  0.31337047345E+03  0.46999998093E+01 0. -1.
       -5    1    5    5    0  501  0.21552850404E+02 -0.57112331872E+02 -0.33942875110E+03  0.34490623492E+03  0.46999998093E+01 0.  1.
       13    1    6    6    0    0  0.17513476333E+02 -0.90256408095E+01 -0.75145465850E+02  0.77685423878E+02  0.00000000000E+00 0. -1.
      -13    1    4    4    0    0 -0.12170656657E+02 -0.73474002590E+02 -0.36920058982E+03  0.37663726510E+03  0.00000000000E+00 0.  1.
       14    1    4    4    0    0  0.16149160751E+02  0.15250093697E+02 -0.64050560653E+02  0.67792588612E+02  0.00000000000E+00 0. -1.
      -14    1    6    6    0    0  0.34469441680E+02  0.82127732657E+02 -0.11147873584E+04  0.11183398237E+04  0.00000000000E+00 0.  1.
</event>
<event>
12   0  0.9284400E-04  0.2703250E+03  0.7546771E-02  0.1101114E+00
       21   -1    0    0  501  502  0.00000000000E+00  0.00000000000E+00  0.29200734245E+03  0.29200734245E+03  0.00000000000E+00 0.  1.
       21   -1    0    0  502  503  0.00000000000E+00  0.00000000000E+00 -0.30043639983E+03  0.30043639983E+03  0.00000000000E+00 0.  1.
       -6    2    1    2    0  503 -0.57163410321E+02  0.19925299607E+03 -0.12544037474E+03  0.29788090862E+03  0.17328686097E+03 0.  0.
      -24    2    3    3    0    0 -0.47849977873E+01  0.15748099824E+03 -0.14437347101E+03  0.22810304655E+03  0.79775558326E+02 0.  0.
        6    2    1    2  501    0  0.57163410321E+02 -0.19925299607E+03  0.11701131736E+03  0.29456283365E+03  0.17351139057E+03 0.  0.
       24    2    5    5    0    0  0.38284279915E+02 -0.20747248754E+03  0.13829706978E+03  0.26457692264E+03  0.79776872019E+02 0.  0.
        5    1    5    5  501    0  0.18879130406E+02  0.82194914668E+01 -0.21285752423E+02  0.29985911013E+02  0.46999998093E+01 0. -1.
       -5    1    3    3    0  503 -0.52378412533E+02  0.41771997834E+02  0.18933096268E+02  0.69777862070E+02  0.46999998093E+01 0. -1.
       13    1    4    4    0    0 -0.10608868523E+02  0.29957983359E+02  0.43824843225E+01  0.32081693021E+02  0.00000000000E+00 0. -1.
      -13    1    6    6    0    0  0.49612192145E+02 -0.13343094212E+03  0.12298753913E+03  0.18812527928E+03  0.00000000000E+00 0.  1.
       14    1    6    6    0    0 -0.11327912230E+02 -0.74041545416E+02  0.15309530658E+02  0.76451643358E+02  0.00000000000E+00 0. -1.
      -14    1    4    4    0    0  0.58238707355E+01  0.12752301488E+03 -0.14875595533E+03  0.19602135353E+03  0.00000000000E+00 0.  1.
</event>
<event>
12   0  0.9284400E-04  0.2377097E+03  0.7546771E-02  0.1121448E+00
       21   -1    0    0  501  502  0.00000000000E+00  0.00000000000E+00  0.19952829500E+03  0.19952829500E+03  0.00000000000E+00 0.  1.
       21   -1    0    0  502  503  0.00000000000E+00  0.00000000000E+00 -0.31344810477E+03  0.31344810477E+03  0.00000000000E+00 0.  1.
       -6    2    1    2    0  503  0.89253155756E+02  0.13573073731E+03 -0.13782727656E+03  0.27477677699E+03  0.17354238717E+03 0.  0.
      -24    2    3    3    0    0  0.12160010577E+02  0.62449297717E+02 -0.13278652441E+03  0.16818868383E+03  0.81285863851E+02 0.  0.
        6    2    1    2  501    0 -0.89253155756E+02 -0.13573073731E+03  0.23907466791E+02  0.23819962279E+03  0.17256458056E+03 0.  0.
       24    2    5    5    0    0 -0.79669817251E+02 -0.13633117449E+03  0.70093792409E+02  0.19079215951E+03  0.80963198309E+02 0.  0.
        5    1    5    5  501    0 -0.95833385051E+01  0.60043717198E+00 -0.46186325618E+02  0.47407463273E+02  0.46999998093E+01 0. -1.
       -5    1    3    3    0  503  0.77093145179E+02  0.73281439597E+02 -0.50407521589E+01  0.10658809316E+03  0.46999998093E+01 0.  1.
       13    1    4    4    0    0 -0.21012955618E+02 -0.89983347693E+01 -0.18616313597E+02  0.29480187658E+02  0.00000000000E+00 0. -1.
      -13    1    6    6    0    0 -0.25003528739E+02 -0.84081088947E+01  0.40866574306E+02  0.48641028362E+02  0.00000000000E+00 0.  1.
       14    1    6    6    0    0 -0.54666288512E+02 -0.12792306559E+03  0.29227218103E+02  0.14215113115E+03  0.00000000000E+00 0. -1.
      -14    1    4    4    0    0  0.33172966195E+02  0.71447632486E+02 -0.11417021081E+03  0.13870849617E+03  0.00000000000E+00 0.  1.
</event>
<event>
12   0  0.9284400E-04  0.2695023E+03  0.7546771E-02  0.1101591E+00
       21   -1    0    0  501  502  0.00000000000E+00  0.00000000000E+00  0.51364424902E+03  0.51364424902E+03  0.00000000000E+00 0. -1.
       21   -1    0    0  502  503  0.00000000000E+00  0.00000000000E+00 -0.23502177584E+03  0.23502177584E+03  0.00000000000E+00 0. -1.
        6    2    1    2  501    0  0.20009918055E+03  0.53063164186E+02  0.37566117475E+03  0.46222581673E+03  0.17226725165E+03 0.  0.
       24    2    3    3    0    0  0.13959755941E+03  0.68916276925E+02  0.16192012381E+03  0.23947237861E+03  0.83017840252E+02 0.  0.
       -6    2    1    2    0  503 -0.20009918055E+03 -0.53063164186E+02 -0.97038701566E+02  0.28644020813E+03  0.17255753181E+03 0.  0.
      -24    2    5    5    0    0 -0.13860702917E+03  0.18900291600E+02 -0.10450050824E+03  0.19137290456E+03  0.78320513417E+02 0.  0.
        5    1    3    3  501    0  0.60501621134E+02 -0.15853112740E+02  0.21374105094E+03  0.22275343813E+03  0.46999998093E+01 0. -1.
       -5    1    5    5    0  503 -0.61492151381E+02 -0.71963455785E+02  0.74618066761E+01  0.95067303565E+02  0.46999998093E+01 0.  1.
       13    1    6    6    0    0 -0.14054766385E+03  0.43009167903E+01 -0.77347695575E+02  0.16048305116E+03  0.00000000000E+00 0. -1.
      -13    1    4    4    0    0  0.12805472030E+03  0.78128883385E+02  0.11142728285E+03  0.18686404998E+03  0.00000000000E+00 0.  1.
       14    1    4    4    0    0  0.11542839110E+02 -0.92126064600E+01  0.50492840962E+02  0.52608328627E+02  0.00000000000E+00 0. -1.
      -14    1    6    6    0    0  0.19406346806E+01  0.14599374810E+02 -0.27152812668E+02  0.30889853408E+02  0.00000000000E+00 0.  1.
</event>
<event>
12   0  0.9284400E-04  0.1909165E+03  0.7546771E-02  0.1157659E+00
       21   -1    0    0  501  502  0.00000000000E+00  0.00000000000E+00  0.28588206997E+03  0.28588206997E+03  0.00000000000E+00 0. -1.
       21   -1    0    0  502  503  0.00000000000E+00  0.00000000000E+00 -0.13076099040E+03  0.13076099040E+03  0.00000000000E+00 0.  1.
        6    2    1    2  501    0  0.79208089684E+02 -0.14920121945E+02  0.11077294040E+03  0.22064343267E+03  0.17296343124E+03 0.  0.
       24    2    3    3    0    0  0.38450943997E+01  0.17413650017E+02 -0.18363837436E+00  0.82590883841E+02  0.80642423158E+02 0.  0.
       -6    2    1    2    0  503 -0.79208089684E+02  0.14920121945E+02  0.44348139183E+02  0.19599962770E+03  0.17306809382E+03 0.  0.
      -24    2    5    5    0    0 -0.14297392364E+02 -0.24859211452E+02  0.76884115674E+02  0.11307512133E+03  0.77797300715E+02 0.  0.
        5    1    3    3  501    0  0.75362995284E+02 -0.32333771961E+02  0.11095657877E+03  0.13805254883E+03  0.46999998093E+01 0. -1.
       -5    1    5    5    0  503 -0.64910697320E+02  0.39779333397E+02 -0.32535976491E+02  0.82924506369E+02  0.46999998093E+01 0.  1.
       13    1    6    6    0    0  0.76786043875E+00 -0.51838385479E+02  0.51633475174E+02  0.73169826960E+02  0.00000000000E+00 0. -1.
      -13    1    4    4    0    0  0.40046757602E+02  0.25915411126E+01 -0.11719781989E+02  0.41806843574E+02  0.00000000000E+00 0.  1.
       14    1    4    4    0    0 -0.36201663203E+02  0.14822108904E+02  0.11536143614E+02  0.40784040267E+02  0.00000000000E+00 0. -1.
      -14    1    6    6    0    0 -0.15065252803E+02  0.26979174027E+02  0.25250640500E+02  0.39905294371E+02  0.00000000000E+00 0.  1.
</event>
<event>
12   0  0.9284400E-04  0.1806574E+03  0.7546771E-02  0.1167168E+00
        4   -1    0    0  502    0  0.00000000000E+00  0.00000000000E+00  0.56144121236E+03  0.56144121236E+03  0.00000000000E+00 0.  1.
       -4   -1    0    0    0  501  0.00000000000E+00  0.00000000000E+00 -0.77614821534E+02  0.77614821534E+02  0.00000000000E+00 0. -1.
        6    2    1    2  502    0  0.40791887710E+02 -0.20046511663E+02  0.80096144284E+02  0.19602982579E+03  0.17305045374E+03 0.  0.
       24    2    3    3    0    0 -0.30497948956E+02 -0.32082802584E+02  0.83593771501E+02  0.12349406561E+03  0.79394171667E+02 0.  0.
       -6    2    1    2    0  501 -0.40791887710E+02  0.20046511663E+02  0.40373024654E+03  0.44302620810E+03  0.17665862096E+03 0.  0.
      -24    2    5    5    0    0  0.10681678919E+02 -0.47613841904E+02  0.24928356949E+03  0.26666488140E+03  0.81158392953E+02 0.  0.
        5    1    3    3  502    0  0.71289836666E+02  0.12036290920E+02 -0.34976272178E+01  0.72535760183E+02  0.46999998093E+01 0. -1.
       -5    1    5    5    0  501 -0.51473566629E+02  0.67660353567E+02  0.15444667705E+03  0.17636132670E+03  0.46999998093E+01 0.  1.
       13    1    6    6    0    0  0.22815317531E+02 -0.28559228575E+02  0.33127234396E+02  0.49331348143E+02  0.00000000000E+00 0. -1.
      -13    1    4    4    0    0  0.19204191926E+02  0.92480723499E+01  0.40615621353E+02  0.45868905891E+02  0.00000000000E+00 0.  1.
       14    1    4    4    0    0 -0.49702140883E+02 -0.41330874934E+02  0.42978150148E+02  0.77625159718E+02  0.00000000000E+00 0. -1.
      -14    1    6    6    0    0 -0.12133638612E+02 -0.19054613329E+02  0.21615633510E+03  0.21733353326E+03  0.00000000000E+00 0.  1.
</event>
<event>
12   0  0.9284400E-04  0.2556627E+03  0.7546771E-02  0.1109786E+00
       21   -1    0    0  503  502  0.00000000000E+00  0.00000000000E+00  0.38024203326E+03  0.38024203326E+03  0.00000000000E+00 0. -1.
       21   -1    0    0  501  503  0.00000000000E+00  0.00000000000E+00 -0.26610639510E+03  0.26610639510E+03  0.00000000000E+00 0. -1.
        6    2    1    2  501    0 -0.12375385597E+03 -0.14174508021E+03 -0.13526081370E+03  0.28919018150E+03  0.17299938938E+03 0.  0.
       24    2    3    3    0    0 -0.74586390900E+02 -0.10101736190E+03 -0.11881406702E+02  0.15019106378E+03  0.81538645440E+02 0.  0.
       -6    2    1    2    0  502  0.12375385597E+03  0.14174508021E+03  0.24939645186E+03  0.35715824686E+03  0.17308015042E+03 0.  0.
      -24    2    5    5    0    0  0.71754304369E+02  0.16510255628E+03  0.21256641814E+03  0.28912835315E+03  0.77480243857E+02 0.  0.
        5    1    3    3  501    0 -0.49167465074E+02 -0.40727718307E+02 -0.12337940699E+03  0.13899911773E+03  0.46999998093E+01 0. -1.
       -5    1    5    5    0  502  0.51999551606E+02 -0.23357476078E+02  0.36830033717E+02  0.68029893707E+02  0.46999998093E+01 0.  1.
       13    1    6    6    0    0  0.79893124139E+01  0.54126880479E+02  0.11775830251E+03  0.12984824263E+03  0.00000000000E+00 0. -1.
      -13    1    4    4    0    0 -0.44919574060E+02 -0.83569875714E+02  0.26628027794E+02  0.98543107951E+02  0.00000000000E+00 0.  1.
       14    1    4    4    0    0 -0.29666816841E+02 -0.17447486185E+02 -0.38509434496E+02  0.51647955824E+02  0.00000000000E+00 0. -1.
      -14    1    6    6    0    0  0.63764991955E+02  0.11097567581E+03  0.94808115630E+02  0.15928011052E+03  0.00000000000E+00 0.  1.
</event>
<event>
12   0  0.9284400E-04  0.1856647E+03  0.7546771E-02  0.1162744E+00
       21   -1    0    0  503  502  0.00000000000E+00  0.00000000000E+00  0.10569925447E+03  0.10569925447E+03  0.00000000000E+00 0.  1.
       21   -1    0    0  501  503  0.00000000000E+00  0.00000000000E+00 -0.33334009650E+03  0.33334009650E+03  0.00000000000E+00 0.  1.
        6    2    1    2  501    0 -0.61157706896E+02  0.26154155615E+02 -0.15060505018E+03  0.23802715492E+03  0.17190328783E+03 0.  0.
       24    2    3    3    0    0 -0.84170397001E+02  0.45904642879E+02 -0.16204948001E+03  0.20527458822E+03  0.81766317205E+02 0.  0.
       -6    2    1    2    0  502  0.61157706896E+02 -0.26154155615E+02 -0.77035791847E+02  0.20101219605E+03  0.17334094947E+03 0.  0.
      -24    2    5    5    0    0 -0.26908460277E+02 -0.30161554485E+02 -0.67913386386E+02  0.11225963368E+03  0.79725859674E+02 0.  0.
        5    1    3    3  501    0  0.23012690105E+02 -0.19750487263E+02  0.11444429823E+02  0.32752566696E+02  0.46999998093E+01 0. -1.
       -5    1    5    5    0  502  0.88066167173E+02  0.40073988700E+01 -0.91224054607E+01  0.88752562362E+02  0.46999998093E+01 0.  1.
       13    1    6    6    0    0 -0.86142897872E+01  0.27053063579E+02 -0.29588014050E+02  0.41006399659E+02  0.00000000000E+00 0. -1.
      -13    1    4    4    0    0 -0.30678403155E+02  0.36122989997E+02 -0.16970515037E+02  0.50339181629E+02  0.00000000000E+00 0.  1.
       14    1    4    4    0    0 -0.53491993846E+02  0.97816528818E+01 -0.14507896497E+03  0.15493540659E+03  0.00000000000E+00 0. -1.
      -14    1    6    6    0    0 -0.18294170490E+02 -0.57214618065E+02 -0.38325372336E+02  0.71253234024E+02  0.00000000000E+00 0.  1.
</event>
<event>
12   0  0.9284400E-04  0.1919682E+03  0.7546771E-02  0.1156814E+00
       21   -1    0    0  503  502  0.00000000000E+00  0.00000000000E+00  0.25543516834E+02  0.25543516834E+02  0.00000000000E+00 0. -1.
       21   -1    0    0  501  503  0.00000000000E+00  0.00000000000E+00 -0.15104561688E+04  0.15104561688E+04  0.00000000000E+00 0.  1.
        6    2    1    2  501    0  0.78690152180E+02 -0.16088165436E+02 -0.57612966747E+03  0.60727028067E+03  0.17435834061E+03 0.  0.
       24    2    3    3    0    0  0.91062825346E+01 -0.55129971274E+02 -0.42801839288E+03  0.43896930868E+03  0.79825254160E+02 0.  0.
       -6    2    1    2    0  502 -0.78690152180E+02  0.16088165436E+02 -0.90878298454E+03  0.92872940499E+03  0.17378384736E+03 0.  0.
      -24    2    5    5    0    0 -0.77378498973E+02  0.49398083729E+02 -0.38203018507E+03  0.40090190208E+03  0.79672266233E+02 0.  0.
        5    1    3    3  501    0  0.69583869646E+02  0.39041805838E+02 -0.14811127458E+03  0.16830097200E+03  0.46999998093E+01 0. -1.
       -5    1    5    5    0  502 -0.13116532076E+01 -0.33309918293E+02 -0.52675279946E+03  0.52782750291E+03  0.46999998093E+01 0.  1.
       13    1    6    6    0    0 -0.75081469830E+02  0.28321770258E+02 -0.17193021948E+03  0.18973494711E+03  0.00000000000E+00 0. -1.
      -13    1    4    4    0    0  0.34554674203E+02 -0.27548065386E+01 -0.10038564845E+03  0.10620213220E+03  0.00000000000E+00 0.  1.
       14    1    4    4    0    0 -0.25448391669E+02 -0.52375164735E+02 -0.32763274443E+03  0.33276717648E+03  0.00000000000E+00 0. -1.
      -14    1    6    6    0    0 -0.22970291427E+01  0.21076313470E+02 -0.21009996559E+03  0.21116695497E+03  0.00000000000E+00 0.  1.
</event>
<event>
12   0  0.9284400E-04  0.2385700E+03  0.7546771E-02  0.1120855E+00
       21   -1    0    0  503  502  0.00000000000E+00  0.00000000000E+00  0.69367066498E+03  0.69367066498E+03  0.00000000000E+00 0.  1.
       21   -1    0    0  501  503  0.00000000000E+00  0.00000000000E+00 -0.26208542071E+03  0.26208542071E+03  0.00000000000E+00 0.  1.
        6    2    1    2  501    0 -0.16303203741E+03 -0.98248049516E+01 -0.18060648940E+03  0.29872157556E+03  0.17303151064E+03 0.  0.
       24    2    3    3    0    0 -0.11914681314E+03  0.55651841788E+02 -0.11502816134E+03  0.19607796257E+03  0.89005611787E+02 0.  0.
       -6    2    1    2    0  502  0.16303203741E+03  0.98248049516E+01  0.61219173367E+03  0.65703451012E+03  0.17389553385E+03 0.  0.
      -24    2    5    5    0    0  0.11489598247E+03  0.60154842992E+02  0.28821981979E+03  0.32562828884E+03  0.78380010550E+02 0.  0.
        5    1    3    3  501    0 -0.43885224280E+02 -0.65476646740E+02 -0.65578328065E+02  0.10264361299E+03  0.46999998093E+01 0. -1.
       -5    1    5    5    0  502  0.48136054949E+02 -0.50330038041E+02  0.32397191389E+03  0.33140622128E+03  0.46999998093E+01 0.  1.
       13    1    6    6    0    0  0.55318278843E+02 -0.13237150424E+02  0.10190382457E+03  0.11670357144E+03  0.00000000000E+00 0. -1.
      -13    1    4    4    0    0 -0.94168704764E+02  0.36465327260E+01 -0.42438513390E+02  0.10335409802E+03  0.00000000000E+00 0.  1.
       14    1    4    4    0    0 -0.24978108372E+02  0.52005309062E+02 -0.72589647949E+02  0.92723864554E+02  0.00000000000E+00 0. -1.
      -14    1    6    6    0    0  0.59577703623E+02  0.73391993417E+02  0.18631599522E+03  0.20892471740E+03  0.00000000000E+00 0.  1.
</event>
<event>
12   0  0.9284400E-04  0.1882667E+03  0.7546771E-02  0.1160229E+00
       21   -1    0    0  501  502  0.00000000000E+00  0.00000000000E+00  0.30411966167E+03  0.30411966167E+03  0.00000000000E+00 0.  1.
       21   -1    0    0  502  503  0.00000000000E+00  0.00000000000E+00 -0.13984585269E+03  0.13984585269E+03  0.00000000000E+00 0.  1.
       -6    2    1    2    0  503  0.52287832352E+02  0.55137943427E+02 -0.93335662347E+01  0.18849789447E+03  0.17225019751E+03 0.  0.
      -24    2    3    3    0    0  0.65883936950E+02  0.94186565722E+02  0.13218854732E+02  0.14116555190E+03  0.80877516109E+02 0.  0.
        6    2    1    2  501    0 -0.52287832352E+02 -0.55137943427E+02  0.17360737521E+03  0.25546761989E+03  0.17131834072E+03 0.  0.
       24    2    5    5    0    0 -0.84349662339E+02 -0.58404343414E+02  0.17930829990E+03  0.22240372945E+03  0.82377300222E+02 0.  0.
        5    1    5    5  501    0  0.32061829987E+02  0.32663999873E+01 -0.57009246878E+01  0.33063890447E+02  0.46999998093E+01 0. -1.
       -5    1    3    3    0  503 -0.13596104598E+02 -0.39048622295E+02 -0.22552420967E+02  0.47332342569E+02  0.46999998093E+01 0.  1.
       13    1    4    4    0    0 -0.12702174470E+02  0.47233901156E+02  0.22112359274E+01  0.48961987490E+02  0.00000000000E+00 0. -1.
      -13    1    6    6    0    0 -0.10742943452E+02  0.16156407441E+02  0.62733423248E+02  0.65665232260E+02  0.00000000000E+00 0.  1.
       14    1    6    6    0    0 -0.73606718887E+02 -0.74560750855E+02  0.11657487665E+03  0.15673849719E+03  0.00000000000E+00 0. -1.
      -14    1    4    4    0    0  0.78586111420E+02  0.46952664566E+02  0.11007618805E+02  0.92203564409E+02  0.00000000000E+00 0.  1.
</event>
<event>
12   0  0.9284400E-04  0.2180135E+03  0.7546771E-02  0.1135498E+00
       21   -1    0    0  503  502  0.00000000000E+00  0.00000000000E+00  0.71396350128E+02  0.71396350128E+02  0.00000000000E+00 0. -1.
       21   -1    0    0  501  503  0.00000000000E+00  0.00000000000E+00 -0.10681954381E+04  0.10681954381E+04  0.00000000000E+00 0. -1.
        6    2    1    2  501    0 -0.52939379606E+02  0.11978079270E+03 -0.84950613590E+03  0.87703509169E+03  0.17429819540E+03 0.  0.
       24    2    3    3    0    0  0.98366435298E+01  0.52808048751E+02 -0.65356157347E+03  0.66060371907E+03  0.79806602249E+02 0.  0.
       -6    2    1    2    0  502  0.52939379606E+02 -0.11978079270E+03 -0.14729295209E+03  0.26255669655E+03  0.17346696791E+03 0.  0.
      -24    2    5    5    0    0  0.43931629173E+02 -0.15081079416E+03 -0.93154023980E+02  0.19933396256E+03  0.79890379704E+02 0.  0.
        5    1    3    3  501    0 -0.62776023135E+02  0.66972743947E+02 -0.19594456242E+03  0.21643137262E+03  0.46999998093E+01 0. -1.
       -5    1    5    5    0  502  0.90077504328E+01  0.31030001459E+02 -0.54138928111E+02  0.63222733993E+02  0.46999998093E+01 0.  1.
       13    1    6    6    0    0  0.51403973345E+02 -0.54972189312E+02 -0.64240828675E+02  0.98950463073E+02  0.00000000000E+00 0. -1.
      -13    1    4    4    0    0  0.19925118003E+02  0.55378476753E+02 -0.24722488959E+03  0.25413368932E+03  0.00000000000E+00 0.  1.
       14    1    4    4    0    0 -0.10088474473E+02 -0.25704280017E+01 -0.40633668388E+03  0.40647002975E+03  0.00000000000E+00 0. -1.
      -14    1    6    6    0    0 -0.74723441725E+01 -0.95838604846E+02 -0.28913195305E+02  0.10038349949E+03  0.00000000000E+00 0.  1.
</event>
<event>
12   0  0.9284400E-04  0.3561500E+03  0.7546771E-02  0.1060245E+00
       21   -1    0    0  503  502  0.00000000000E+00  0.00000000000E+00  0.19008877630E+03  0.19008877630E+03  0.00000000000E+00 0. -1.
       21   -1    0    0  501  503  0.00000000000E+00  0.00000000000E+00 -0.95888479300E+03  0.95888479300E+03  0.00000000000E+00 0.  1.
        6    2    1    2  501    0  0.30980736245E+03  0.11390566191E+02 -0.66788045777E+02  0.36235822634E+03  0.17530685757E+03 0.  0.
       24    2    3    3    0    0  0.19187327585E+03  0.44440363889E+02  0.20734592243E+02  0.21174932862E+03  0.74950349736E+02 0.  0.
       -6    2    1    2    0  502 -0.30980736245E+03 -0.11390566191E+02 -0.70200797092E+03  0.78661534296E+03  0.17273725631E+03 0.  0.
      -24    2    5    5    0    0 -0.25701137023E+03 -0.25714831897E+02 -0.42144719851E+03  0.50073243267E+03  0.79994568491E+02 0.  0.
        5    1    3    3  501    0  0.11793408660E+03 -0.33049797697E+02 -0.87522638020E+02  0.15060889772E+03  0.46999998093E+01 0. -1.
       -5    1    5    5    0  502 -0.52795992217E+02  0.14324265706E+02 -0.28056077240E+03  0.28588291028E+03  0.46999998093E+01 0.  1.
       13    1    6    6    0    0 -0.17193880854E+03 -0.54676947580E+02 -0.27460788457E+03  0.32857573365E+03  0.00000000000E+00 0. -1.
      -13    1    4    4    0    0  0.41573479033E+02 -0.15936574104E+02  0.22239868047E+02  0.49768868621E+02  0.00000000000E+00 0.  1.
       14    1    4    4    0    0  0.15029979682E+03  0.60376937993E+02 -0.15052758041E+01  0.16198046000E+03  0.00000000000E+00 0. -1.
      -14    1    6    6    0    0 -0.85072561696E+02  0.28962115682E+02 -0.14683931394E+03  0.17215669902E+03  0.00000000000E+00 0.  1.
</event>
<event>
12   0  0.9284400E-04  0.1973233E+03  0.7546771E-02  0.1152588E+00
       21   -1    0    0  501  502  0.00000000000E+00  0.00000000000E+00  0.31850218883E+03  0.31850218883E+03  0.00000000000E+00 0. -1.
       21   -1    0    0  502  503  0.00000000000E+00  0.00000000000E+00 -0.12450255761E+03  0.12450255761E+03  0.00000000000E+00 0. -1.
       -6    2    1    2    0  503 -0.28350634076E+02 -0.89584091408E+02  0.13548700279E+03  0.23718877530E+03  0.17050724124E+03 0.  0.
      -24    2    3    3    0    0 -0.20574777320E+01  0.15591611089E+02  0.40691316276E+02  0.93100015685E+02  0.82246569225E+02 0.  0.
        6    2    1    2  501    0  0.28350634076E+02  0.89584091408E+02  0.58512628421E+02  0.20581597114E+03  0.17351489390E+03 0.  0.
       24    2    5    5    0    0  0.62232399934E+02  0.22045941086E+02 -0.92750617571E+01  0.10419591040E+03  0.80074127247E+02 0.  0.
        5    1    5    5  501    0 -0.33881765858E+02  0.67538150322E+02  0.67787690178E+02  0.10162006074E+03  0.46999998093E+01 0. -1.
       -5    1    3    3    0  503 -0.26293156344E+02 -0.10517570250E+03  0.94795686515E+02  0.14408875961E+03  0.46999998093E+01 0.  1.
       13    1    4    4    0    0 -0.33051838907E+02 -0.18161883410E+02  0.21566507129E+02  0.43444128416E+02  0.00000000000E+00 0. -1.
      -13    1    6    6    0    0  0.12335096737E+02  0.26918407849E+02 -0.36616374140E+02  0.47090488932E+02  0.00000000000E+00 0.  1.
       14    1    6    6    0    0  0.49897303196E+02 -0.48724667631E+01  0.27341312383E+02  0.57105421472E+02  0.00000000000E+00 0. -1.
      -14    1    4    4    0    0  0.30994361175E+02  0.33753494499E+02  0.19124809147E+02  0.49655887269E+02  0.00000000000E+00 0.  1.
</event>
<event>
12   0  0.9284400E-04  0.2705809E+03  0.7546771E-02  0.1101028E+00
       21   -1    0    0  503  502  0.00000000000E+00  0.00000000000E+00  0.46176739691E+03  0.46176739691E+03  0.00000000000E+00 0. -1.
       21   -1    0    0  501  503  0.00000000000E+00  0.00000000000E+00 -0.17074784529E+03  0.17074784529E+03  0.00000000000E+00 0.  1.
        6    2    1    2  501    0 -0.16043980928E+03 -0.13133487012E+03  0.23102198254E+03  0.35536230192E+03  0.17297811623E+03 0.  0.
       24    2    3    3    0    0 -0.12576918585E+03 -0.35109644862E+02  0.81682384663E+02  0.17429394025E+03  0.81583027473E+02 0.  0.
       -6    2    1    2    0  502  0.16043980928E+03  0.13133487012E+03  0.59997569088E+02  0.27715294029E+03  0.17385126833E+03 0.  0.
      -24    2    5    5    0    0  0.11506687599E+03  0.94865478507E+02  0.10359650567E+03  0.20427168845E+03  0.93567311339E+02 0.  0.
        5    1    3    3  501    0 -0.34670623437E+02 -0.96225225259E+02  0.14933959788E+03  0.18106836167E+03  0.46999998093E+01 0. -1.
       -5    1    5    5    0  502  0.45372933293E+02  0.36469391614E+02 -0.43598936583E+02  0.72881251840E+02  0.46999998093E+01 0.  1.
       13    1    6    6    0    0  0.22783703980E+02 -0.17648454769E+02  0.28446761508E+02  0.40494238640E+02  0.00000000000E+00 0. -1.
      -13    1    4    4    0    0 -0.55964278882E+02  0.19204741705E+02  0.90696095818E+01  0.59858837549E+02  0.00000000000E+00 0.  1.
       14    1    4    4    0    0 -0.69804906964E+02 -0.54314386566E+02  0.72612775081E+02  0.11443510270E+03  0.00000000000E+00 0. -1.
      -14    1    6    6    0    0  0.92283172010E+02  0.11251393328E+03  0.75149744163E+02  0.16377744981E+03  0.00000000000E+00 0.  1.
</event>
<event>
12   0  0.9284400E-04  0.1935606E+03  0.7546771E-02  0.1155642E+00
       21   -1    0    0  503  502  0.00000000000E+00  0.00000000000E+00  0.41333131726E+03  0.41333131726E+03  0.00000000000E+00 0. -1.
       21   -1    0    0  501  503  0.00000000000E+00  0.00000000000E+00 -0.23003046843E+03  0.23003046843E+03  0.00000000000E+00 0. -1.
        6    2    1    2  501    0  0.26559379649E+02  0.82381545225E+02 -0.15927556558E+03  0.25066791606E+03  0.17312879226E+03 0.  0.
       24    2    3    3    0    0  0.12793667540E+02  0.59012473944E+02 -0.18692651726E+03  0.21165159319E+03  0.78795456944E+02 0.  0.
       -6    2    1    2    0  502 -0.26559379649E+02 -0.82381545225E+02  0.34257641441E+03  0.39269386963E+03  0.17134105141E+03 0.  0.
      -24    2    5    5    0    0 -0.76059591716E+02 -0.40011530896E+02  0.27189413260E+03  0.29644645892E+03  0.81043812650E+02 0.  0.
        5    1    3    3  501    0  0.13765712109E+02  0.23369071281E+02  0.27650951687E+02  0.39016322864E+02  0.46999998093E+01 0. -1.
       -5    1    5    5    0  502  0.49500212067E+02 -0.42370014329E+02  0.70682281805E+02  0.96247410709E+02  0.46999998093E+01 0.  1.
       13    1    6    6    0    0 -0.43761858967E+02 -0.63049376510E+02  0.20183633700E+03  0.21593571060E+03  0.00000000000E+00 0. -1.
      -13    1    4    4    0    0  0.27805763581E+02 -0.92774416531E+01 -0.57938022256E+02  0.64931085274E+02  0.00000000000E+00 0.  1.
       14    1    4    4    0    0 -0.15012096041E+02  0.68289915597E+02 -0.12898849501E+03  0.14672050792E+03  0.00000000000E+00 0. -1.
      -14    1    6    6    0    0 -0.32297732749E+02  0.23037845614E+02  0.70057795604E+02  0.80510748327E+02  0.00000000000E+00 0.  1.
</event>
<event>
12   0  0.9284400E-04  0.2011484E+03  0.7546771E-02  0.1148932E+00
       21   -1    0    0  503  502  0.00000000000E+00  0.00000000000E+00  0.14930353961E+03  0.14930353961E+03  0.00000000000E+00 0.  1.
       21   -1    0    0  501  503  0.00000000000E+00  0.00000000000E+00 -0.40083128918E+03  0.40083128918E+03  0.00000000000E+00 0.  1.
        6    2    1    2  501    0 -0.56194147089E+02 -0.85302461164E+02 -0.28276532916E+03  0.34657530671E+03  0.17240626380E+03 0.  0.
       24    2    3    3    0    0 -0.75085735603E+02 -0.57316933244E+02 -0.28626625241E+03  0.31230537307E+03  0.81628305475E+02 0.  0.
       -6    2    1    2    0  502  0.56194147089E+02  0.85302461164E+02  0.31237579596E+02  0.20355952208E+03  0.17328127598E+03 0.  0.
      -24    2    5    5    0    0 -0.13959873044E+02  0.56266320752E+02 -0.32151060171E+02  0.10453985919E+03  0.80833870264E+02 0.  0.
        5    1    3    3  501    0  0.18891588514E+02 -0.27985527920E+02  0.35009232494E+01  0.34269933635E+02  0.46999998093E+01 0. -1.
       -5    1    5    5    0  502  0.70154020133E+02  0.29036140411E+02  0.63388639767E+02  0.99019662898E+02  0.46999998093E+01 0.  1.
       13    1    6    6    0    0 -0.12636701584E+02  0.11938710952E+01 -0.46015163644E+02  0.47733707590E+02  0.00000000000E+00 0. -1.
      -13    1    4    4    0    0 -0.41221809815E+02  0.15057252450E+02 -0.82795817992E+02  0.93707555367E+02  0.00000000000E+00 0.  1.
       14    1    4    4    0    0 -0.33863925788E+02 -0.72374185693E+02 -0.20347043442E+03  0.21859781771E+03  0.00000000000E+00 0. -1.
      -14    1    6    6    0    0 -0.13231714600E+01  0.55072449657E+02  0.13864103472E+02  0.56806151595E+02  0.00000000000E+00 0.  1.
</event>
<event>
12   0  0.9284400E-04  0.2036531E+03  0.7546771E-02  0.1146993E+00
       21   -1    0    0  501  502  0.00000000000E+00  0.00000000000E+00  0.31020169500E+03  0.31020169500E+03  0.00000000000E+00 0. -1.
       21   -1    0    0  502  503  0.00000000000E+00  0.00000000000E+00 -0.31582128691E+03  0.31582128691E+03  0.00000000000E+00 0. -1.
       -6    2    1    2    0  503  0.17109570113E+02 -0.10581260058E+03 -0.24111848908E+03  0.31468019044E+03  0.17145393739E+03 0.  0.
      -24    2    3    3    0    0  0.37527098715E+02 -0.61293286405E+02 -0.24235416040E+03  0.26546168080E+03  0.81050692882E+02 0.  0.
        6    2    1    2  501    0 -0.17109570113E+02  0.10581260058E+03  0.23549889717E+03  0.31134279148E+03  0.17316338933E+03 0.  0.
       24    2    5    5    0    0 -0.44951837018E+02  0.98154791241E+02  0.89748811745E+02  0.16268542950E+03  0.82198960258E+02 0.  0.
        5    1    5    5  501    0  0.27842266905E+02  0.76578093402E+01  0.14575008542E+03  0.14865736198E+03  0.46999998093E+01 0. -1.
       -5    1    3    3    0  503 -0.20417528602E+02 -0.44519314176E+02  0.12356713194E+01  0.49218509635E+02  0.46999998093E+01 0.  1.
       13    1    4    4    0    0 -0.21536349801E+02 -0.67363769065E+01 -0.94523153111E+02  0.97179316785E+02  0.00000000000E+00 0. -1.
      -13    1    6    6    0    0 -0.26328764373E+02  0.14480895413E+01  0.49913541215E+02  0.56450530496E+02  0.00000000000E+00 0.  1.
       14    1    6    6    0    0 -0.18623072645E+02  0.96706701700E+02  0.39835270531E+02  0.10623489901E+03  0.00000000000E+00 0. -1.
      -14    1    4    4    0    0  0.59063448515E+02 -0.54556909499E+02 -0.14783100729E+03  0.16828236402E+03  0.00000000000E+00 0.  1.
</event>
<event>
12   0  0.9284400E-04  0.2297514E+03  0.7546771E-02  0.1127747E+00
       21   -1    0    0  503  502  0.00000000000E+00  0.00000000000E+00  0.24430132689E+02  0.24430132689E+02  0.00000000000E+00 0. -1.
       21   -1    0    0  501  503  0.00000000000E+00  0.00000000000E+00 -0.21471718948E+04  0.21471718948E+04  0.00000000000E+00 0. -1.
        6    2    1    2  501    0  0.12017459611E+03 -0.90202963208E+02 -0.12127065030E+04  0.12342782313E+04  0.17380213368E+03 0.  0.
       24    2    3    3    0    0  0.21059283314E+02  0.13965592777E+02 -0.50263318441E+03  0.50977761634E+03  0.81206950740E+02 0.  0.
       -6    2    1    2    0  502 -0.12017459611E+03  0.90202963208E+02 -0.91003525914E+03  0.93732379623E+03  0.16683290441E+03 0.  0.
      -24    2    5    5    0    0 -0.68381277046E+02  0.12434023120E+03 -0.67363825205E+03  0.69287843235E+03  0.78457219233E+02 0.  0.
        5    1    3    3  501    0  0.99115312796E+02 -0.10416855599E+03 -0.71007331859E+03  0.72450061495E+03  0.46999998093E+01 0. -1.
       -5    1    5    5    0  502 -0.51793319063E+02 -0.34137267991E+02 -0.23639700709E+03  0.24444536388E+03  0.46999998093E+01 0.  1.
       13    1    6    6    0    0 -0.57935851549E+02  0.12695246998E+03 -0.50585922416E+03  0.52475427316E+03  0.00000000000E+00 0. -1.
      -13    1    4    4    0    0  0.16710588963E+02 -0.33283873812E+02 -0.19818057832E+03  0.20164970038E+03  0.00000000000E+00 0.  1.
       14    1    4    4    0    0  0.43486943515E+01  0.47249466589E+02 -0.30445260609E+03  0.30812791596E+03  0.00000000000E+00 0. -1.
      -14    1    6    6    0    0 -0.10445425497E+02 -0.26122387849E+01 -0.16777902789E+03  0.16812415920E+03  0.00000000000E+00 0.  1.
</event>
<event>
12   0  0.9284400E-04  0.1951010E+03  0.7546771E-02  0.1154029E+00
       21   -1    0    0  503  502  0.00000000000E+00  0.00000000000E+00  0.19423323601E+03  0.19423323601E+03  0.00000000000E+00 0.  1.
       21   -1    0    0  501  503  0.00000000000E+00  0.00000000000E+00 -0.29034146187E+03  0.29034146187E+03  0.00000000000E+00 0.  1.
        6    2    1    2  501    0  0.87438361186E+02 -0.31164861109E+01 -0.18652008441E+03  0.26991503606E+03  0.17438235378E+03 0.  0.
       24    2    3    3    0    0  0.32174064879E+02 -0.65959209781E+02 -0.81347358967E+02  0.13542807558E+03  0.79608938178E+02 0.  0.
       -6    2    1    2    0  502 -0.87438361186E+02  0.31164861109E+01  0.90411858545E+02  0.21465966182E+03  0.17392322086E+03 0.  0.
      -24    2    5    5    0    0 -0.50174778321E+02 -0.64226469690E+02  0.35907725589E+02  0.12023276517E+03  0.80771314681E+02 0.  0.
        5    1    3    3  501    0  0.55264296308E+02  0.62842723670E+02 -0.10517272544E+03  0.13448696048E+03  0.46999998093E+01 0. -1.
       -5    1    5    5    0  502 -0.37263582866E+02  0.67342955801E+02  0.54504132956E+02  0.94426896652E+02  0.46999998093E+01 0.  1.
       13    1    6    6    0    0 -0.16299004284E+02  0.18437884680E+02  0.20449608666E+01  0.24694027559E+02  0.00000000000E+00 0. -1.
      -13    1    4    4    0    0  0.35122185908E+02  0.52699314076E+01 -0.16924895592E+02  0.39341990428E+02  0.00000000000E+00 0.  1.
       14    1    4    4    0    0 -0.29481210295E+01 -0.71229141188E+02 -0.64422463374E+02  0.96086085149E+02  0.00000000000E+00 0. -1.
      -14    1    6    6    0    0 -0.33875774036E+02 -0.82664354369E+02  0.33862764723E+02  0.95538737612E+02  0.00000000000E+00 0.  1.
</event>
<event>
12   0  0.9284400E-04  0.2476889E+03  0.7546771E-02  0.1114889E+00
       21   -1    0    0  501  502  0.00000000000E+00  0.00000000000E+00  0.55603570097E+03  0.55603570097E+03  0.00000000000E+00 0.  1.
       21   -1    0    0  502  503  0.00000000000E+00  0.00000000000E+00 -0.18574430481E+03  0.18574430481E+03  0.00000000000E+00 0.  1.
       -6    2    1    2    0  503 -0.78306925928E+01 -0.17549834178E+03 -0.51517015898E+02  0.25298974675E+03  0.17461048457E+03 0.  0.
      -24    2    3    3    0    0 -0.34082342096E+02 -0.17454616992E+03 -0.18127575071E+02  0.21024632048E+03  0.11066587016E+03 0.  0.
        6    2    1    2  501    0  0.78306925928E+01  0.17549834178E+03  0.42180841205E+03  0.48879025902E+03  0.17358742213E+03 0.  0.
       24    2    5    5    0    0 -0.25023614596E+02  0.17649942200E+03  0.41136724571E+03  0.45398342614E+03  0.71412275663E+02 0.  0.
        5    1    5    5  501    0  0.32854307188E+02 -0.10010802125E+01  0.10441166341E+02  0.34806832881E+02  0.46999998093E+01 0. -1.
       -5    1    3    3    0  503  0.26251649503E+02 -0.95217185858E+00 -0.33389440826E+02  0.42743426276E+02  0.46999998093E+01 0.  1.
       13    1    4    4    0    0  0.66791855168E+01  0.14274841421E+02 -0.53894590493E+01  0.16656196612E+02  0.00000000000E+00 0. -1.
      -13    1    6    6    0    0  0.30253770778E+01  0.10592219643E+03  0.16430457739E+03  0.19551127526E+03  0.00000000000E+00 0.  1.
       14    1    6    6    0    0 -0.28048991673E+02  0.70577225563E+02  0.24706266832E+03  0.25847215088E+03  0.00000000000E+00 0. -1.
      -14    1    4    4    0    0 -0.40761527613E+02 -0.18882101134E+03 -0.12738116022E+02  0.19359012387E+03  0.00000000000E+00 0.  1.
</event>
<event>
12   0  0.9284400E-04  0.1754136E+03  0.7546771E-02  0.1172419E+00
       21   -1    0    0  501  502  0.00000000000E+00  0.00000000000E+00  0.70907214708E+02  0.70907214708E+02  0.00000000000E+00 0. -1.
       21   -1    0    0  502  503  0.00000000000E+00  0.00000000000E+00 -0.62376925610E+03  0.62376925610E+03  0.00000000000E+00 0. -1.
       -6    2    1    2    0  503 -0.18003153799E+02 -0.22060229172E+02 -0.84539485861E+02  0.19472251476E+03  0.17308716252E+03 0.  0.
      -24    2    3    3    0    0  0.73217692574E+01 -0.58458202959E+02 -0.23153334016E+01  0.10118607550E+03  0.82233152127E+02 0.  0.
        6    2    1    2  501    0  0.18003153799E+02  0.22060229172E+02 -0.46832255553E+03  0.49995395605E+03  0.17267650358E+03 0.  0.
       24    2    5    5    0    0 -0.30608691689E+02 -0.38323002523E+02 -0.22258998251E+03  0.24224126013E+03  0.82030380153E+02 0.  0.
        5    1    5    5  501    0  0.48611845488E+02  0.60383231695E+02 -0.24573257303E+03  0.25771269592E+03  0.46999998093E+01 0. -1.
       -5    1    3    3    0  503 -0.25324923056E+02  0.36397973787E+02 -0.82224152460E+02  0.93536439260E+02  0.46999998093E+01 0.  1.
       13    1    4    4    0    0 -0.29405574977E+02 -0.49537924808E+02 -0.17868895092E+02  0.60315762830E+02  0.00000000000E+00 0. -1.
      -13    1    6    6    0    0 -0.22198382897E+02  0.82591505767E+01 -0.12297657675E+02  0.26687340740E+02  0.00000000000E+00 0.  1.
       14    1    6    6    0    0 -0.84103087917E+01 -0.46582153100E+02 -0.21029232483E+03  0.21555391939E+03  0.00000000000E+00 0. -1.
      -14    1    4    4    0    0  0.36727344234E+02 -0.89202781510E+01  0.15553561690E+02  0.40870312673E+02  0.00000000000E+00 0.  1.
</event>
<event>
12   0  0.9284400E-04  0.2651694E+03  0.7546771E-02  0.1104608E+00
       21   -1    0    0  501  502  0.00000000000E+00  0.00000000000E+00  0.27030635563E+03  0.27030635563E+03  0.00000000000E+00 0.  1.
       21   -1    0    0  502  503  0.00000000000E+00  0.00000000000E+00 -0.25934828975E+03  0.25934828975E+03  0.00000000000E+00 0. -1.
        6    2    1    2  501    0 -0.17755244193E+03 -0.88667278069E+02  0.32651031784E+02  0.26359941507E+03  0.17038722344E+03 0.  0.
       24    2    3    3    0    0 -0.75203081873E+02 -0.10257068430E+03 -0.10030968626E+02  0.15173995250E+03  0.82147087913E+02 0.  0.
       -6    2    1    2    0  503  0.17755244193E+03  0.88667278069E+02 -0.21692965906E+02  0.26605523031E+03  0.17586371135E+03 0.  0.
      -24    2    5    5    0    0  0.15473984555E+03  0.12816206584E+03 -0.36164882937E+02  0.21797426531E+03  0.76386822537E+02 0.  0.
        5    1    3    3  501    0 -0.10234936006E+03  0.13903406228E+02  0.42682000410E+02  0.11185946257E+03  0.46999998093E+01 0. -1.
       -5    1    5    5    0  503  0.22812596382E+02 -0.39494787774E+02  0.14471917031E+02  0.48080965004E+02  0.46999998093E+01 0.  1.
       13    1    6    6    0    0  0.46313328485E+02  0.86253078109E+02 -0.25955332293E+02  0.10128275842E+03  0.00000000000E+00 0. -1.
      -13    1    4    4    0    0 -0.72311432190E+02 -0.10293670686E+03  0.14866459358E+02  0.12667249290E+03  0.00000000000E+00 0.  1.
       14    1    4    4    0    0 -0.28916496836E+01  0.36602256238E+00 -0.24897427984E+02  0.25067459597E+02  0.00000000000E+00 0. -1.
      -14    1    6    6    0    0  0.10842651707E+03  0.41908987734E+02 -0.10209550644E+02  0.11669150689E+03  0.00000000000E+00 0.  1.
</event>
<event>
12   0  0.9284400E-04  0.3486734E+03  0.7546771E-02  0.1063161E+00
       -1   -1    0    0    0  501  0.00000000000E+00  0.00000000000E+00  0.24828303051E+03  0.24828303051E+03  0.00000000000E+00 0. -1.
        1   -1    0    0  502    0  0.00000000000E+00  0.00000000000E+00 -0.80885526403E+03  0.80885526403E+03  0.00000000000E+00 0.  1.
        6    2    1    2  502    0 -0.19656407327E+03 -0.23021126922E+03  0.51808631506E+02  0.35240156331E+03  0.17282379509E+03 0.  0.
       24    2    3    3    0    0 -0.87206037616E+02 -0.68423931476E+02 -0.25513657347E+02  0.14231789196E+03  0.85537759300E+02 0.  0.
       -6    2    1    2    0  501  0.19656407327E+03  0.23021126922E+03 -0.61238086502E+03  0.70473673124E+03  0.17323069339E+03 0.  0.
      -24    2    5    5    0    0  0.45562557265E+02  0.15106287562E+03 -0.29659645945E+03  0.34583868604E+03  0.82091400212E+02 0.  0.
        5    1    3    3  502    0 -0.10935803565E+03 -0.16178733774E+03  0.77322288853E+02  0.21008367135E+03  0.46999998093E+01 0. -1.
       -5    1    5    5    0  501  0.15100151600E+03  0.79148393598E+02 -0.31578440557E+03  0.35889804520E+03  0.46999998093E+01 0.  1.
       13    1    6    6    0    0  0.13940851765E+02  0.79777288109E+02 -0.22807758349E+03  0.24202922786E+03  0.00000000000E+00 0. -1.
      -13    1    4    4    0    0 -0.41966331406E+01 -0.17761629809E+02 -0.40028064680E+02  0.43992421906E+02  0.00000000000E+00 0.  1.
       14    1    4    4    0    0 -0.83009404475E+02 -0.50662301667E+02  0.14514407332E+02  0.98325470056E+02  0.00000000000E+00 0. -1.
      -14    1    6    6    0    0  0.31621705500E+02  0.71285587509E+02 -0.68518875955E+02  0.10380945818E+03  0.00000000000E+00 0.  1.
</event>
<event>
12   0  0.9284400E-04  0.1819459E+03  0.7546771E-02  0.1166050E+00
       21   -1    0    0  503  502  0.00000000000E+00  0.00000000000E+00  0.44621289587E+03  0.44621289587E+03  0.00000000000E+00 0.  1.
       21   -1    0    0  501  503  0.00000000000E+00  0.00000000000E+00 -0.86481763945E+02  0.86481763945E+02  0.00000000000E+00 0.  1.
        6    2    1    2  501    0  0.54621849042E+02 -0.10268259027E+02  0.78846345280E+02  0.19829537175E+03  0.17324931387E+03 0.  0.
       24    2    3    3    0    0  0.82182218277E+02 -0.13008118705E+01  0.72451522900E-02  0.11416640665E+03  0.79236098105E+02 0.  0.
       -6    2    1    2    0  502 -0.54621849042E+02  0.10268259027E+02  0.28088478665E+03  0.33439928807E+03  0.17273574313E+03 0.  0.
      -24    2    5    5    0    0  0.33459585902E+02  0.16064287617E+02  0.17778489975E+03  0.19859203567E+03  0.80335053521E+02 0.  0.
        5    1    3    3  501    0 -0.27560369235E+02 -0.89674471562E+01  0.78839100128E+02  0.84128965095E+02  0.46999998093E+01 0. -1.
       -5    1    5    5    0  502 -0.88081434944E+02 -0.57960285904E+01  0.10309988689E+03  0.13580725240E+03  0.46999998093E+01 0.  1.
       13    1    6    6    0    0  0.46299931781E+02  0.22483762641E+01  0.45446473413E+02  0.64916260093E+02  0.00000000000E+00 0. -1.
      -13    1    4    4    0    0  0.72459775114E+02 -0.98900541669E+01  0.31862161023E+02  0.79771106837E+02  0.00000000000E+00 0.  1.
       14    1    4    4    0    0  0.97224431639E+01  0.85892422964E+01 -0.31854915871E+02  0.34395299816E+02  0.00000000000E+00 0. -1.
      -14    1    6    6    0    0 -0.12840345879E+02  0.13815911353E+02  0.13233842634E+03  0.13367577557E+03  0.00000000000E+00 0.  1.
</event>
<event>
12   0  0.9284400E-04  0.2173243E+03  0.7546771E-02  0.1138190E+00
       21   -1    0    0  503  502  0.00000000000E+00  0.00000000000E+00  0.38209063894E+03  0.38209063894E+03  0.00000000000E+00 0. -1.
       21   -1    0    0  501  503  0.00000000000E+00  0.00000000000E+00 -0.15645384738E+03  0.15645384738E+03  0.00000000000E+00 0. -1.
        6    2    1    2  501    0 -0.53143271159E+02  0.94085575439E+02 -0.24703149284E+02  0.20703291128E+03  0.17486016698E+03 0.  0.
       24    2    3    3    0    0 -0.52776679938E+02  0.64789624392E+02  0.50404426511E+02  0.12627633213E+03  0.80137584630E+02 0.  0.
       -6    2    1    2    0  502  0.53143271159E+02 -0.94085575439E+02  0.25033994085E+03  0.33151157503E+03  0.18855645208E+03 0.  0.
      -24    2    5    5    0    0  0.52933762431E+02  0.36028393626E+01  0.46392635690E+02  0.10532655440E+03  0.78271596113E+02 0.  0.
        5    1    3    3  501    0 -0.36659122145E+00  0.29295951047E+02 -0.75107575794E+02  0.80756579155E+02  0.46999998093E+01 0. -1.
       -5    1    5    5    0  502  0.20950872859E+00 -0.97688414802E+02  0.20394730516E+03  0.22618502063E+03  0.46999998093E+01 0.  1.
       13    1    6    6    0    0  0.14481204345E+02 -0.35733270180E+02  0.11701305085E+02  0.40292585146E+02  0.00000000000E+00 0. -1.
      -13    1    4    4    0    0 -0.61120097474E+01  0.18938721415E+02  0.57143147676E+02  0.60509265062E+02  0.00000000000E+00 0.  1.
       14    1    4    4    0    0 -0.46664670190E+02  0.45850902977E+02 -0.67387211658E+01  0.65767067068E+02  0.00000000000E+00 0. -1.
      -14    1    6    6    0    0  0.38452558085E+02  0.39336109543E+02  0.34691330605E+02  0.65033969250E+02  0.00000000000E+00 0.  1.
</event>
<event>
12   0  0.9284400E-04  0.2037674E+03  0.7546771E-02  0.1146599E+00
       -2   -1    0    0    0  501  0.00000000000E+00  0.00000000000E+00  0.58625148679E+02  0.58625148679E+02  0.00000000000E+00 0. -1.
        2   -1    0    0  502    0  0.00000000000E+00  0.00000000000E+00 -0.70862615856E+03  0.70862615856E+03  0.00000000000E+00 0.  1.
        6    2    1    2  502    0  0.10774617166E+03  0.72825466229E+01 -0.31628386441E+03  0.37628881080E+03  0.17290319042E+03 0.  0.
       24    2    3    3    0    0  0.25668792430E+02  0.95017996468E+01 -0.27088805257E+03  0.28235004885E+03  0.74779956947E+02 0.  0.
       -6    2    1    2    0  501 -0.10774617166E+03 -0.72825466229E+01 -0.33371714547E+03  0.39096249643E+03  0.17269124889E+03 0.  0.
      -24    2    5    5    0    0 -0.13305522195E+03 -0.17170372136E+02 -0.19566487979E+03  0.25018311166E+03  0.79424998638E+02 0.  0.
        5    1    3    3  502    0  0.82077379235E+02 -0.22192530239E+01 -0.45395811837E+02  0.93938761949E+02  0.46999998093E+01 0. -1.
       -5    1    5    5    0  501  0.25309050285E+02  0.98878255131E+01 -0.13805226569E+03  0.14077938478E+03  0.46999998093E+01 0.  1.
       13    1    6    6    0    0 -0.49702854765E+01 -0.26804058279E+02 -0.29613998544E+02  0.40251089274E+02  0.00000000000E+00 0. -1.
      -13    1    4    4    0    0  0.29770297771E+02 -0.27685368143E+02 -0.11302050765E+03  0.12010988880E+03  0.00000000000E+00 0.  1.
       14    1    4    4    0    0 -0.41015053416E+01  0.37187167790E+02 -0.15786754492E+03  0.16224016005E+03  0.00000000000E+00 0. -1.
      -14    1    6    6    0    0 -0.12808493647E+03  0.96336861435E+01 -0.16605088124E+03  0.20993202238E+03  0.00000000000E+00 0.  1.
</event>
<event>
12   0  0.9284400E-04  0.2299729E+03  0.7546771E-02  0.1126939E+00
       21   -1    0    0  501  502  0.00000000000E+00  0.00000000000E+00  0.14354958646E+03  0.14354958646E+03  0.00000000000E+00 0.  1.
       21   -1    0    0  502  503  0.00000000000E+00  0.00000000000E+00 -0.38993198585E+03  0.38993198585E+03  0.00000000000E+00 0. -1.
       -6    2    1    2    0  503  0.98336276570E+02  0.11420693377E+03 -0.18902539703E+03  0.29646395140E+03  0.17160135998E+03 0.  0.
      -24    2    3    3    0    0  0.10526922891E+03  0.83688754234E+02 -0.20794106406E+03  0.25959502725E+03  0.77876016262E+02 0.  0.
        6    2    1    2  501    0 -0.98336276570E+02 -0.11420693377E+03 -0.57357002352E+02  0.23701762091E+03  0.17370745491E+03 0.  0.
       24    2    5    5    0    0  0.82898315746E+01 -0.46703616989E+02 -0.65206996356E+02  0.11048882135E+03  0.75537263129E+02 0.  0.
        5    1    5    5  501    0 -0.10662610815E+03 -0.67503316784E+02  0.78499940044E+01  0.12652879956E+03  0.46999998093E+01 0. -1.
       -5    1    3    3    0  503 -0.69329523408E+01  0.30518179539E+02  0.18915667034E+02  0.36868924152E+02  0.46999998093E+01 0.  1.
       13    1    4    4    0    0  0.25195308530E+02 -0.88614351532E+01 -0.71417577527E+02  0.76248272012E+02  0.00000000000E+00 0. -1.
      -13    1    6    6    0    0  0.36065909270E+01 -0.16498013555E+02  0.16280345278E+02  0.23457228987E+02  0.00000000000E+00 0.  1.
       14    1    6    6    0    0  0.46832406477E+01 -0.30205603434E+02 -0.81487341634E+02  0.87031592358E+02  0.00000000000E+00 0. -1.
      -14    1    4    4    0    0  0.80073920381E+02  0.92550189387E+02 -0.13652348654E+03  0.18334675524E+03  0.00000000000E+00 0.  1.
</event>
<event>
12   0  0.9284400E-04  0.2025245E+03  0.7546771E-02  0.1148651E+00
       21   -1    0    0  503  502  0.00000000000E+00  0.00000000000E+00  0.16824672972E+03  0.16824672972E+03  0.00000000000E+00 0.  1.
       21   -1    0    0  501  503  0.00000000000E+00  0.00000000000E+00 -0.25101948816E+03  0.25101948816E+03  0.00000000000E+00 0.  1.
        6    2    1    2  501    0  0.88344094256E+02  0.47666674079E+02 -0.88726118598E+02  0.21665423787E+03  0.17026433525E+03 0.  0.
       24    2    3    3    0    0  0.12550755145E+03  0.52206331068E+02 -0.56059212884E+02  0.16674484233E+03  0.78635619280E+02 0.  0.
       -6    2    1    2    0  502 -0.88344094256E+02 -0.47666674079E+02  0.59533601563E+01  0.20261198001E+03  0.17589593839E+03 0.  0.
      -24    2    5    5    0    0 -0.82919299286E+02 -0.64732498165E+02 -0.51832183252E+02  0.14193307283E+03  0.79953207745E+02 0.  0.
        5    1    3    3  501    0 -0.37163457194E+02 -0.45396569887E+01 -0.32666905714E+02  0.49909395541E+02  0.46999998093E+01 0. -1.
       -5    1    5    5    0  502 -0.54247949696E+01  0.17065824086E+02  0.57785543408E+02  0.60678907187E+02  0.46999998093E+01 0.  1.
       13    1    6    6    0    0  0.37781417747E+01 -0.21261943195E+02 -0.38354227716E+02  0.44015808153E+02  0.00000000000E+00 0. -1.
      -13    1    4    4    0    0  0.64884595704E+02 -0.14920504291E+02 -0.22788502613E+02  0.70370079290E+02  0.00000000000E+00 0.  1.
       14    1    4    4    0    0  0.60622955745E+02  0.67126835359E+02 -0.33270710271E+02  0.96374763038E+02  0.00000000000E+00 0. -1.
      -14    1    6    6    0    0 -0.86697441061E+02 -0.43470554970E+02 -0.13477955536E+02  0.97917264674E+02  0.00000000000E+00 0.  1.
</event>
<event>
12   0  0.9284400E-04  0.1776692E+03  0.7546771E-02  0.1172164E+00
       21   -1    0    0  503  502  0.00000000000E+00  0.00000000000E+00  0.35389131673E+03  0.35389131673E+03  0.00000000000E+00 0.  1.
       21   -1    0    0  501  503  0.00000000000E+00  0.00000000000E+00 -0.11082422908E+03  0.11082422908E+03  0.00000000000E+00 0.  1.
        6    2    1    2  501    0 -0.19618949670E+02 -0.41541598866E+02  0.11829029822E+02  0.17806249717E+03  0.17162668594E+03 0.  0.
       24    2    3    3    0    0  0.43990041701E+02 -0.15184937013E+02  0.42705717384E+02  0.10245669554E+03  0.80671494855E+02 0.  0.
       -6    2    1    2    0  502  0.19618949670E+02  0.41541598866E+02  0.23123805783E+03  0.28665304864E+03  0.16305926310E+03 0.  0.
      -24    2    5    5    0    0 -0.37520716464E+02  0.27294294836E+02  0.47815764918E+02  0.93951843004E+02  0.66240612426E+02 0.  0.
        5    1    3    3  501    0 -0.63608991370E+02 -0.26356661853E+02 -0.30876687562E+02  0.75605801630E+02  0.46999998093E+01 0. -1.
       -5    1    5    5    0  502  0.57139666134E+02  0.14247304031E+02  0.18342229291E+03  0.19270120564E+03  0.46999998093E+01 0.  1.
       13    1    6    6    0    0  0.16362302957E+02 -0.17136782275E+01  0.22152490426E+02  0.27593377524E+02  0.00000000000E+00 0. -1.
      -13    1    4    4    0    0  0.28195908867E+02 -0.45977756819E+02  0.41104495705E+02  0.67812557585E+02  0.00000000000E+00 0.  1.
       14    1    4    4    0    0  0.15794132834E+02  0.30792819806E+02  0.16012216784E+01  0.34644137952E+02  0.00000000000E+00 0. -1.
      -14    1    6    6    0    0 -0.53883019421E+02  0.29007973063E+02  0.25663274492E+02  0.66358465480E+02  0.00000000000E+00 0.  1.
</event>
<event>
12   0  0.9284400E-04  0.2010282E+03  0.7546771E-02  0.1150655E+00
       21   -1    0    0  503  502  0.00000000000E+00  0.00000000000E+00  0.10929214843E+04  0.10929214843E+04  0.00000000000E+00 0.  1.
       21   -1    0    0  501  503  0.00000000000E+00  0.00000000000E+00 -0.11005663935E+03  0.11005663935E+03  0.00000000000E+00 0.  1.
        6    2    1    2  501    0 -0.59093762681E+02  0.60337527773E+02 -0.70569816255E+01  0.19285062845E+03  0.17323069549E+03 0.  0.
       24    2    3    3    0    0 -0.43527894933E+02  0.77022945953E+02  0.50378414667E+02  0.13086987205E+03  0.82229720328E+02 0.  0.
       -6    2    1    2    0  502  0.59093762681E+02 -0.60337527773E+02  0.98992182654E+03  0.10101274952E+04  0.18242709171E+03 0.  0.
      -24    2    5    5    0    0  0.15739866816E+02  0.20973106975E+02  0.24476567905E+03  0.25928080392E+03  0.81416724447E+02 0.  0.
        5    1    3    3  501    0 -0.15565867748E+02 -0.16685418180E+02 -0.57435396293E+02  0.61980756402E+02  0.46999998093E+01 0. -1.
       -5    1    5    5    0  502  0.43353895864E+02 -0.81310634748E+02  0.74515614749E+03  0.75084669124E+03  0.46999998093E+01 0.  1.
       13    1    6    6    0    0 -0.32272484061E+02  0.18033674271E+02  0.93172192157E+02  0.10023863540E+03  0.00000000000E+00 0. -1.
      -13    1    4    4    0    0 -0.43033140361E+01  0.73745956957E+02  0.53761578325E+02  0.91363515602E+02  0.00000000000E+00 0.  1.
       14    1    4    4    0    0 -0.39224580896E+02  0.32769889964E+01 -0.33831636578E+01  0.39506356447E+02  0.00000000000E+00 0. -1.
      -14    1    6    6    0    0  0.48012350877E+02  0.29394327042E+01  0.15159348689E+03  0.15904216852E+03  0.00000000000E+00 0.  1.
</event>
<event>
12   0  0.9284400E-04  0.1912850E+03  0.7546771E-02  0.1157307E+00
        1   -1    0    0  502    0  0.00000000000E+00  0.00000000000E+00  0.13120106896E+04  0.13120106896E+04  0.00000000000E+00 0. -1.
       -1   -1    0    0    0  501  0.00000000000E+00  0.00000000000E+00 -0.29824300549E+02  0.29824300549E+02  0.00000000000E+00 0.  1.
        6    2    1    2  502    0  0.48940480395E+02  0.70566802608E+02  0.81447826552E+03  0.83682042712E+03  0.17181018015E+03 0.  0.
       24    2    3    3    0    0  0.27656526508E+02  0.86537898990E+02  0.79243330125E+03  0.80194704099E+03  0.83155446033E+02 0.  0.
       -6    2    1    2    0  501 -0.48940480395E+02 -0.70566802608E+02  0.46770812357E+03  0.50501456306E+03  0.17004110032E+03 0.  0.
      -24    2    5    5    0    0 -0.82573988056E+02 -0.33693712035E+01  0.24993072023E+03  0.27458931482E+03  0.78128808583E+02 0.  0.
        5    1    3    3  502    0  0.21283953887E+02 -0.15971096383E+02  0.22044964269E+02  0.34873386136E+02  0.46999998093E+01 0. -1.
       -5    1    5    5    0  501  0.33633507661E+02 -0.67197431404E+02  0.21777740333E+03  0.23042524824E+03  0.46999998093E+01 0.  1.
       13    1    6    6    0    0 -0.40253587912E+02 -0.16693959697E+02  0.21134039518E+03  0.21578647378E+03  0.00000000000E+00 0. -1.
      -13    1    4    4    0    0 -0.27586099439E+02  0.24636778691E+02  0.16780212866E+03  0.17182991046E+03  0.00000000000E+00 0.  1.
       14    1    4    4    0    0  0.55242625946E+02  0.61901120299E+02  0.62463117259E+03  0.63011713053E+03  0.00000000000E+00 0. -1.
      -14    1    6    6    0    0 -0.42320400144E+02  0.13324588494E+02  0.38590325052E+02  0.58802841041E+02  0.00000000000E+00 0.  1.
</event>
<event>
12   0  0.9284400E-04  0.2128470E+03  0.7546771E-02  0.1139375E+00
       21   -1    0    0  501  502  0.00000000000E+00  0.00000000000E+00  0.47047766591E+03  0.47047766591E+03  0.00000000000E+00 0.  1.
       21   -1    0    0  502  503  0.00000000000E+00  0.00000000000E+00 -0.96227915118E+02  0.96227915118E+02  0.00000000000E+00 0. -1.
       -6    2    1    2    0  503 -0.12396149732E+03  0.59913728067E+01  0.19247440184E+03  0.28680179263E+03  0.17264565887E+03 0.  0.
      -24    2    3    3    0    0 -0.38214271352E+02  0.62476216571E+02  0.87513516047E+02  0.13989365167E+03  0.80919775794E+02 0.  0.
        6    2    1    2  501    0  0.12396149732E+03 -0.59913728067E+01  0.18177534894E+03  0.27990378839E+03  0.17292051326E+03 0.  0.
       24    2    5    5    0    0  0.26345713066E+02  0.38509392283E+02  0.13193956796E+03  0.16151943768E+03  0.80643718068E+02 0.  0.
        5    1    5    5  501    0  0.97615784254E+02 -0.44500765089E+02  0.49835780984E+02  0.11838435071E+03  0.46999998093E+01 0. -1.
       -5    1    3    3    0  503 -0.85747225967E+02 -0.56484843764E+02  0.10496088580E+03  0.14690814096E+03  0.46999998093E+01 0.  1.
       13    1    4    4    0    0  0.11660083241E+02  0.47924507268E+02  0.16715308252E+02  0.52077994086E+02  0.00000000000E+00 0. -1.
      -13    1    6    6    0    0  0.50365176578E+02  0.40405434513E+01  0.81292786500E+02  0.95715694324E+02  0.00000000000E+00 0.  1.
       14    1    6    6    0    0 -0.24019463513E+02  0.34468848831E+02  0.50646781461E+02  0.65803743355E+02  0.00000000000E+00 0. -1.
      -14    1    4    4    0    0 -0.49874354594E+02  0.14551709302E+02  0.70798207795E+02  0.87815657583E+02  0.00000000000E+00 0.  1.
</event>
<event>
12   0  0.9284400E-04  0.1875730E+03  0.7546771E-02  0.1161217E+00
       21   -1    0    0  501  502  0.00000000000E+00  0.00000000000E+00  0.76823041675E+03  0.76823041675E+03  0.00000000000E+00 0. -1.
       21   -1    0    0  502  503  0.00000000000E+00  0.00000000000E+00 -0.54212983327E+02  0.54212983327E+02  0.00000000000E+00 0. -1.
       -6    2    1    2    0  503 -0.24961261445E+02 -0.58403502092E+02  0.19142458240E+03  0.26800558425E+03  0.17649246106E+03 0.  0.
      -24    2    3    3    0    0  0.15741203778E+02 -0.89980953026E+02  0.16936897611E+03  0.21177066761E+03  0.88411584007E+02 0.  0.
        6    2    1    2  501    0  0.24961261445E+02  0.58403502092E+02  0.52259285103E+03  0.55443781583E+03  0.17396542774E+03 0.  0.
       24    2    5    5    0    0  0.22654777792E+02  0.61810763163E+02  0.53261121064E+03  0.54263159618E+03  0.80252963017E+02 0.  0.
        5    1    5    5  501    0  0.23064836529E+01 -0.34072610711E+01 -0.10018359614E+02  0.11806219650E+02  0.46999998093E+01 0. -1.
       -5    1    3    3    0  503 -0.40702465223E+02  0.31577450934E+02  0.22055606291E+02  0.56234916643E+02  0.46999998093E+01 0.  1.
       13    1    4    4    0    0 -0.87674172691E+01 -0.71184342385E+02  0.47443791585E+02  0.85994136814E+02  0.00000000000E+00 0. -1.
      -13    1    6    6    0    0 -0.19405793218E+02  0.13835947193E+02  0.45540756354E+02  0.51400182241E+02  0.00000000000E+00 0.  1.
       14    1    6    6    0    0  0.42060571010E+02  0.47974815970E+02  0.48707045429E+03  0.49123141394E+03  0.00000000000E+00 0. -1.
      -14    1    4    4    0    0  0.24508621048E+02 -0.18796610641E+02  0.12192518452E+03  0.12577653079E+03  0.00000000000E+00 0.  1.
</event>
<event>
12   0  0.9284400E-04  0.1860375E+03  0.7546771E-02  0.1163463E+00
       21   -1    0    0  501  502  0.00000000000E+00  0.00000000000E+00  0.47057580961E+03  0.47057580961E+03  0.00000000000E+00 0. -1.
       21   -1    0    0  502  503  0.00000000000E+00  0.00000000000E+00 -0.83492752971E+02  0.83492752971E+02  0.00000000000E+00 0. -1.
       -6    2    1    2    0  503  0.57642088138E+02  0.14606219227E+02  0.90129023921E+02  0.20672009662E+03  0.17627820464E+03 0.  0.
      -24    2    3    3    0    0 -0.13725431946E+02  0.58528250335E+02  0.53686751061E+02  0.11521820053E+03  0.82334822061E+02 0.  0.
        6    2    1    2  501    0 -0.57642088138E+02 -0.14606219227E+02  0.29695403272E+03  0.34734846596E+03  0.17009793441E+03 0.  0.
       24    2    5    5    0    0 -0.81715964425E+02 -0.23685690495E+02  0.11528748104E+03  0.16380878547E+03  0.79395240007E+02 0.  0.
        5    1    5    5  501    0  0.24073876287E+02  0.90794712676E+01  0.18166655168E+03  0.18353968050E+03  0.46999998093E+01 0. -1.
       -5    1    3    3    0  503  0.71367520084E+02 -0.43922031107E+02  0.36442272860E+02  0.91501896095E+02  0.46999998093E+01 0.  1.
       13    1    4    4    0    0 -0.29288412377E+02 -0.81904108194E+01  0.30027858782E+02  0.42738346154E+02  0.00000000000E+00 0. -1.
      -13    1    6    6    0    0 -0.10343556147E+02  0.26676095691E+02  0.34561229137E+02  0.44867380072E+02  0.00000000000E+00 0.  1.
       14    1    6    6    0    0 -0.71372408279E+02 -0.50361786185E+02  0.80726251901E+02  0.11894140539E+03  0.00000000000E+00 0. -1.
      -14    1    4    4    0    0  0.15562980431E+02  0.66718661154E+02  0.23658892280E+02  0.72479854373E+02  0.00000000000E+00 0.  1.
</event>
<event>
12   0  0.9284400E-04  0.2335380E+03  0.7546771E-02  0.1124226E+00
       21   -1    0    0  503  502  0.00000000000E+00  0.00000000000E+00  0.99821215563E+02  0.99821215563E+02  0.00000000000E+00 0. -1.
       21   -1    0    0  501  503  0.00000000000E+00  0.00000000000E+00 -0.56491206802E+03  0.56491206802E+03  0.00000000000E+00 0. -1.
        6    2    1    2  501    0 -0.11262299233E+03 -0.10807065338E+03 -0.17134539512E+03  0.28965365411E+03  0.17371468097E+03 0.  0.
       24    2    3    3    0    0 -0.45354460529E+01 -0.55267984723E+02 -0.12955620917E+03  0.16221949252E+03  0.80344458517E+02 0.  0.
       -6    2    1    2    0  502  0.11262299233E+03  0.10807065338E+03 -0.29374545734E+03  0.37507962948E+03  0.17330646329E+03 0.  0.
      -24    2    5    5    0    0  0.36109043993E+02  0.75613163839E+02 -0.68477451132E+02  0.13492210297E+03  0.80582870099E+02 0.  0.
        5    1    3    3  501    0 -0.10808754628E+03 -0.52802668661E+02 -0.41789185949E+02  0.12743416158E+03  0.46999998093E+01 0. -1.
       -5    1    5    5    0  502  0.76513948336E+02  0.32457489544E+02 -0.22526800621E+03  0.24015752651E+03  0.46999998093E+01 0.  1.
       13    1    6    6    0    0  0.58415338247E+02  0.30521904215E+02 -0.40534179310E+02  0.77375435843E+02  0.00000000000E+00 0. -1.
      -13    1    4    4    0    0 -0.13506374308E+02  0.13649935407E+02 -0.63486409456E+02  0.66326970903E+02  0.00000000000E+00 0.  1.
       14    1    4    4    0    0  0.89709282548E+01 -0.68917920130E+02 -0.66069799712E+02  0.95892521620E+02  0.00000000000E+00 0. -1.
      -14    1    6    6    0    0 -0.22306294254E+02  0.45091259624E+02 -0.27943271821E+02  0.57546667131E+02  0.00000000000E+00 0.  1.
</event>
<event>
12   0  0.9284400E-04  0.2604580E+03  0.7546771E-02  0.1107438E+00
       21   -1    0    0  501  502  0.00000000000E+00  0.00000000000E+00  0.26385888329E+03  0.26385888329E+03  0.00000000000E+00 0. -1.
       21   -1    0    0  502  503  0.00000000000E+00  0.00000000000E+00 -0.28041989009E+03  0.28041989009E+03  0.00000000000E+00 0.  1.
       -6    2    1    2    0  503 -0.65503624858E+02  0.18148190014E+03 -0.92818113871E+02  0.27650236746E+03  0.17496271603E+03 0.  0.
      -24    2    3    3    0    0 -0.78856306601E+01  0.12839857125E+03  0.45350135819E+01  0.15145279935E+03  0.79806063756E+02 0.  0.
        6    2    1    2  501    0  0.65503624858E+02 -0.18148190014E+03  0.76257107068E+02  0.26777640592E+03  0.16930047915E+03 0.  0.
       24    2    5    5    0    0 -0.36984399661E+01 -0.26141892435E+02  0.93218254970E+01  0.84959925024E+02  0.80213561392E+02 0.  0.
        5    1    5    5  501    0  0.69202064824E+02 -0.15534000770E+03  0.66935281571E+02  0.18281648089E+03  0.46999998093E+01 0. -1.
       -5    1    3    3    0  503 -0.57617994198E+02  0.53083328886E+02 -0.97353127453E+02  0.12504956811E+03  0.46999998093E+01 0.  1.
       13    1    4    4    0    0  0.36962778279E+01  0.13503757863E+03 -0.47827886011E+01  0.13517279748E+03  0.00000000000E+00 0. -1.
      -13    1    6    6    0    0  0.12675694188E+02  0.31100563662E+01 -0.30340320595E+02  0.33028483579E+02  0.00000000000E+00 0.  1.
       14    1    6    6    0    0 -0.16374134154E+02 -0.29251948801E+02  0.39662146092E+02  0.51931441445E+02  0.00000000000E+00 0. -1.
      -14    1    4    4    0    0 -0.11581908488E+02 -0.66390073812E+01  0.93178021830E+01  0.16280001866E+02  0.00000000000E+00 0.  1.
</event>
<event>
12   0  0.9284400E-04  0.2093085E+03  0.7546771E-02  0.1142404E+00
       21   -1    0    0  501  502  0.00000000000E+00  0.00000000000E+00  0.20853038701E+03  0.20853038701E+03  0.00000000000E+00 0.  1.
       21   -1    0    0  502  503  0.00000000000E+00  0.00000000000E+00 -0.23317960599E+03  0.23317960599E+03  0.00000000000E+00 0.  1.
       -6    2    1    2    0  503  0.10845108765E+03 -0.39719284228E+02 -0.84011898153E+02  0.22553942160E+03  0.17455879157E+03 0.  0.
      -24    2    3    3    0    0  0.10126857238E+02 -0.44729064069E+02  0.61221533203E+00  0.95631443552E+02  0.83915170132E+02 0.  0.
        6    2    1    2  501    0 -0.10845108765E+03  0.39719284228E+02  0.59362679177E+02  0.21617057139E+03  0.17281935165E+03 0.  0.
       24    2    5    5    0    0 -0.32139949448E+02  0.83610079510E+02  0.34253588767E+02  0.12450624822E+03  0.79403247762E+02 0.  0.
        5    1    5    5  501    0 -0.76311138202E+02 -0.43890795281E+02  0.25109090410E+02  0.91664323178E+02  0.46999998093E+01 0. -1.
       -5    1    3    3    0  503  0.98324230412E+02  0.50097798409E+01 -0.84624113485E+02  0.12990797805E+03  0.46999998093E+01 0.  1.
       13    1    4    4    0    0  0.67689072382E+01 -0.69616064750E+02  0.50637518770E+01  0.70127428012E+02  0.00000000000E+00 0. -1.
      -13    1    6    6    0    0 -0.32986301910E+02  0.75259656542E+02 -0.69423605723E+01  0.82463982361E+02  0.00000000000E+00 0.  1.
       14    1    6    6    0    0  0.84635246199E+00  0.83504229676E+01  0.41195949339E+02  0.42042265855E+02  0.00000000000E+00 0. -1.
      -14    1    4    4    0    0  0.33579499994E+01  0.24887000681E+02 -0.44515365449E+01  0.25504015541E+02  0.00000000000E+00 0.  1.
</event>
<event>
12   0  0.9284400E-04  0.1834213E+03  0.7546771E-02  0.1165636E+00
       21   -1    0    0  501  502  0.00000000000E+00  0.00000000000E+00  0.59024485275E+03  0.59024485275E+03  0.00000000000E+00 0. -1.
       21   -1    0    0  502  503  0.00000000000E+00  0.00000000000E+00 -0.56670232529E+02  0.56670232529E+02  0.00000000000E+00 0. -1.
       -6    2    1    2    0  503 -0.18338865643E+02 -0.54580396340E+02  0.22515911523E+03  0.29041348349E+03  0.17414944893E+03 0.  0.
      -24    2    3    3    0    0  0.29885684532E+00 -0.35753638259E+02  0.25902366805E+02  0.89348436024E+02  0.77677528601E+02 0.  0.
        6    2    1    2  501    0  0.18338865643E+02  0.54580396340E+02  0.30841550499E+03  0.35650160179E+03  0.16928654614E+03 0.  0.
       24    2    5    5    0    0  0.30927332159E+02 -0.22705568425E+02  0.22442650783E+03  0.24157627177E+03  0.80745247251E+02 0.  0.
        5    1    5    5  501    0 -0.12588466517E+02  0.77285964765E+02  0.83988997163E+02  0.11492533003E+03  0.46999998093E+01 0. -1.
       -5    1    3    3    0  503 -0.18637722488E+02 -0.18826758081E+02  0.19925674843E+03  0.20106504746E+03  0.46999998093E+01 0.  1.
       13    1    4    4    0    0  0.33954346067E+02 -0.33968667883E+02  0.27974797971E+02  0.55581987515E+02  0.00000000000E+00 0. -1.
      -13    1    6    6    0    0  0.34062252776E+02 -0.39473700401E+02  0.75955133178E+02  0.92128130034E+02  0.00000000000E+00 0.  1.
       14    1    6    6    0    0 -0.31349206164E+01  0.16768131976E+02  0.14847137465E+03  0.14944814174E+03  0.00000000000E+00 0. -1.
      -14    1    4    4    0    0 -0.33655489221E+02 -0.17849703758E+01 -0.20724311660E+01  0.33766448509E+02  0.00000000000E+00 0.  1.
</event>
<event>
12   0  0.9284400E-04  0.2215480E+03  0.7546771E-02  0.1133364E+00
       21   -1    0    0  503  502  0.00000000000E+00  0.00000000000E+00  0.13262784786E+03  0.13262784786E+03  0.00000000000E+00 0. -1.
       21   -1    0    0  501  503  0.00000000000E+00  0.00000000000E+00 -0.36554565184E+03  0.36554565184E+03  0.00000000000E+00 0. -1.
        6    2    1    2  501    0  0.12568628459E+03  0.46832356694E+02 -0.13091982636E+03  0.25733933892E+03  0.17633270444E+03 0.  0.
       24    2    3    3    0    0  0.11753336506E+03 -0.28335836777E+02 -0.89673249820E+02  0.17108333924E+03  0.81309321020E+02 0.  0.
       -6    2    1    2    0  502 -0.12568628459E+03 -0.46832356694E+02 -0.10199797761E+03  0.24083416078E+03  0.17206741061E+03 0.  0.
      -24    2    5    5    0    0 -0.15250414389E+03 -0.66061188799E+02 -0.96570869104E+02  0.20706303307E+03  0.76990728873E+02 0.  0.
        5    1    3    3  501    0  0.81529195291E+01  0.75168193471E+02 -0.41246576545E+02  0.86255999683E+02  0.46999998093E+01 0. -1.
       -5    1    5    5    0  502  0.26817859305E+02  0.19228832106E+02 -0.54271085083E+01  0.33771127710E+02  0.46999998093E+01 0.  1.
       13    1    6    6    0    0 -0.47639878180E+02 -0.34024104413E+02 -0.75283761015E+02  0.95366882861E+02  0.00000000000E+00 0. -1.
      -13    1    4    4    0    0  0.13525693024E+02 -0.22445497488E+02  0.88886622732E+01  0.27672243246E+02  0.00000000000E+00 0.  1.
       14    1    4    4    0    0  0.10400767204E+03 -0.58903392891E+01 -0.98561912093E+02  0.14341109600E+03  0.00000000000E+00 0. -1.
      -14    1    6    6    0    0 -0.10486426571E+03 -0.32037084386E+02 -0.21287108089E+02  0.11169615020E+03  0.00000000000E+00 0.  1.
</event>
<event>
12   0  0.9284400E-04  0.1844317E+03  0.7546771E-02  0.1163709E+00
       21   -1    0    0  501  502  0.00000000000E+00  0.00000000000E+00  0.53960738246E+03  0.53960738246E+03  0.00000000000E+00 0. -1.
       21   -1    0    0  502  503  0.00000000000E+00  0.00000000000E+00 -0.80972453239E+02  0.80972453239E+02  0.00000000000E+00 0. -1.
       -6    2    1    2    0  503  0.62438330718E+02 -0.13605444819E+02  0.82791947229E+02  0.20216220412E+03  0.17300692754E+03 0.  0.
      -24    2    3    3    0    0  0.10186625160E+03  0.19757363297E+02  0.69693048129E+02  0.14867099862E+03  0.80491355153E+02 0.  0.
        6    2    1    2  501    0 -0.62438330718E+02  0.13605444819E+02  0.37584298199E+03  0.41841763158E+03  0.17242886659E+03 0.  0.
       24    2    5    5    0    0 -0.42085975145E+02  0.75662504580E+02  0.26767712907E+03  0.29197697839E+03  0.78124686092E+02 0.  0.
        5    1    5    5  501    0 -0.20352355574E+02 -0.62057059760E+02  0.10816585292E+03  0.12644065319E+03  0.46999998093E+01 0. -1.
       -5    1    3    3    0  503 -0.39427920877E+02 -0.33362808116E+02  0.13098899100E+02  0.53491205501E+02  0.46999998093E+01 0.  1.
       13    1    4    4    0    0  0.37252934534E+02  0.63575290999E+01 -0.15554666245E+02  0.40867431405E+02  0.00000000000E+00 0. -1.
      -13    1    6    6    0    0 -0.32012068268E+02  0.82185083568E+02  0.26551717042E+03  0.27978300210E+03  0.00000000000E+00 0.  1.
       14    1    6    6    0    0 -0.10073906876E+02 -0.65225789885E+01  0.21599586559E+01  0.12193976292E+02  0.00000000000E+00 0. -1.
      -14    1    4    4    0    0  0.64613317062E+02  0.13399834197E+02  0.85247714374E+02  0.10780356721E+03  0.00000000000E+00 0.  1.
</event>
<event>
12   0  0.9284400E-04  0.1752830E+03  0.7546771E-02  0.1173806E+00
       21   -1    0    0  503  502  0.00000000000E+00  0.00000000000E+00  0.84128402976E+03  0.84128402976E+03  0.00000000000E+00 0.  1.
       21   -1    0    0  501  503  0.00000000000E+00  0.00000000000E+00 -0.71959189774E+02  0.71959189774E+02  0.00000000000E+00 0.  1.
        6    2    1    2  501    0  0.32215315203E+01  0.80883552303E+01  0.56363971800E+02  0.17905161405E+03  0.16972561215E+03 0.  0.
       24    2    3    3    0    0  0.33663814432E+02  0.18104836644E+02  0.93089488222E+02  0.13008309310E+03  0.82431309476E+02 0.  0.
       -6    2    1    2    0  502 -0.32215315203E+01 -0.80883552303E+01  0.71296086819E+03  0.73419160549E+03  0.17506659946E+03 0.  0.
      -24    2    5    5    0    0  0.52123586542E+02  0.32687869057E+02  0.30373321939E+03  0.31920348386E+03  0.76495950774E+02 0.  0.
        5    1    3    3  501    0 -0.30442282912E+02 -0.10016481414E+02 -0.36725516422E+02  0.48968520944E+02  0.46999998093E+01 0. -1.
       -5    1    5    5    0  502 -0.55345118062E+02 -0.40776224288E+02  0.40922764879E+03  0.41498812163E+03  0.46999998093E+01 0.  1.
       13    1    6    6    0    0  0.38748059075E+02 -0.19874777108E+02  0.12140152202E+03  0.12897576670E+03  0.00000000000E+00 0. -1.
      -13    1    4    4    0    0 -0.61569094856E+01  0.43269780403E+02  0.42630890531E+02  0.61053863580E+02  0.00000000000E+00 0.  1.
       14    1    4    4    0    0  0.39820723918E+02 -0.25164943759E+02  0.50458597692E+02  0.69029229524E+02  0.00000000000E+00 0. -1.
      -14    1    6    6    0    0  0.13375527467E+02  0.52562646165E+02  0.18233169737E+03  0.19022771716E+03  0.00000000000E+00 0.  1.
</event>
<event>
11   0  0.9284400E-04  0.2296589E+03  0.7546771E-02  0.1132137E+00
       21   -1    0    0  503  502  0.00000000000E+00  0.00000000000E+00  0.18326369411E+03  0.18326369411E+03  0.00000000000E+00 0.  1.
       21   -1    0    0  501  503  0.00000000000E+00  0.00000000000E+00 -0.27151111209E+03  0.27151111209E+03  0.00000000000E+00 0.  1.
        6    2    1    2  501    0  0.98267109217E+02  0.32562302166E+02  0.16222513149E+02  0.20247103929E+03  0.17324729014E+03 0.  0.
       24    2    3    3    0    0  0.83019729800E+02  0.69954729701E+02 -0.31812573148E+02  0.13954142996E+03  0.81693519465E+02 0.  0.
      -24    2    1    2    0    0 -0.99973464623E+02  0.38364183642E+01 -0.14662853031E+03  0.19638225058E+03  0.84003873167E+02 0.  0.
        5    1    3    3  501    0  0.15247379417E+02 -0.37392427535E+02  0.48035086297E+02  0.62929609325E+02  0.46999998093E+01 0. -1.
       -5    1    1    2    0  502  0.17063554062E+01 -0.36398720530E+02  0.42158599184E+02  0.55921516328E+02  0.46999998093E+01 0.  1.
       13    1    5    5    0    0  0.12040014902E+02 -0.12590306763E+02 -0.18975628681E+02  0.25759508285E+02  0.00000000000E+00 0. -1.
      -13    1    4    4    0    0  0.67512151297E+02  0.67700576260E+02  0.87964702127E+01  0.96013730721E+02  0.00000000000E+00 0.  1.
       14    1    4    4    0    0  0.15507578503E+02  0.22541534406E+01 -0.40609043360E+02  0.43527699243E+02  0.00000000000E+00 0. -1.
      -14    1    5    5    0    0 -0.11201347953E+03  0.16426725127E+02 -0.12765290163E+03  0.17062274230E+03  0.00000000000E+00 0.  1.
</event>
<event>
12   0  0.9284400E-04  0.2434516E+03  0.7546771E-02  0.1117557E+00
       21   -1    0    0  501  502  0.00000000000E+00  0.00000000000E+00  0.26075367713E+03  0.26075367713E+03  0.00000000000E+00 0.  1.
       21   -1    0    0  502  503  0.00000000000E+00  0.00000000000E+00 -0.31041214429E+03  0.31041214429E+03  0.00000000000E+00 0.  1.
       -6    2    1    2    0  503 -0.56976233001E+02  0.16114192478E+03 -0.17280788449E+03  0.29833902691E+03  0.17300462128E+03 0.  0.
      -24    2    3    3    0    0 -0.22973697388E+02  0.12664719246E+03 -0.19324193269E+03  0.24555930249E+03  0.79935125935E+02 0.  0.
        6    2    1    2  501    0  0.56976233001E+02 -0.16114192478E+03  0.12314941733E+03  0.27282679451E+03  0.17336571104E+03 0.  0.
       24    2    5    5    0    0  0.40592268063E+02 -0.86674872775E+02  0.14654619574E+03  0.19293139176E+03  0.81157061584E+02 0.  0.
        5    1    5    5  501    0  0.16383964937E+02 -0.74467052007E+02 -0.23396778412E+02  0.79895402746E+02  0.46999998093E+01 0. -1.
       -5    1    3    3    0  503 -0.34002535612E+02  0.34494732317E+02  0.20434048201E+02  0.52779724419E+02  0.46999998093E+01 0.  1.
       13    1    4    4    0    0 -0.38447348480E+02  0.19229721959E+02 -0.54418373945E+02  0.69349406879E+02  0.00000000000E+00 0. -1.
      -13    1    6    6    0    0  0.24009653853E+02 -0.51057275617E+02  0.19098966470E+02  0.59565756873E+02  0.00000000000E+00 0.  1.
       14    1    6    6    0    0  0.16582614210E+02 -0.35617597158E+02  0.12744722927E+03  0.13336563489E+03  0.00000000000E+00 0. -1.
      -14    1    4    4    0    0  0.15473651092E+02  0.10741747051E+03 -0.13882355874E+03  0.17620989561E+03  0.00000000000E+00 0.  1.
</event>
<event>
12   0  0.9284400E-04  0.2191471E+03  0.7546771E-02  0.1138449E+00
       21   -1    0    0  503  502  0.00000000000E+00  0.00000000000E+00  0.60337429284E+03  0.60337429284E+03  0.00000000000E+00 0.  1.
       21   -1    0    0  501  503  0.00000000000E+00  0.00000000000E+00 -0.72551573871E+02  0.72551573871E+02  0.00000000000E+00 0.  1.
        6    2    1    2  501    0 -0.59582157859E+01  0.10221161652E+03  0.25978311070E+03  0.32737466814E+03  0.17089234579E+03 0.  0.
       24    2    3    3    0    0 -0.37110926979E+02  0.42058448242E+02  0.56366719964E+02  0.11292371084E+03  0.80177449334E+02 0.  0.
       -6    2    1    2    0  502  0.59582157859E+01 -0.10221161652E+03  0.27103960827E+03  0.34855119857E+03  0.19375952592E+03 0.  0.
      -24    2    5    5    0    0  0.20543035736E+02 -0.13426206561E+03  0.13581904985E+03  0.20874190819E+03  0.81719345021E+02 0.  0.
        5    1    3    3  501    0  0.31152711193E+02  0.60153168280E+02  0.20341639073E+03  0.21445095730E+03  0.46999998093E+01 0. -1.
       -5    1    5    5    0  502 -0.14584819950E+02  0.32050449091E+02  0.13522055842E+03  0.13980929038E+03  0.46999998093E+01 0.  1.
       13    1    6    6    0    0  0.16072068559E+02 -0.17383532348E+02 -0.64764917838E+01  0.24544725105E+02  0.00000000000E+00 0. -1.
      -13    1    4    4    0    0 -0.12237960379E+02  0.43265241064E+02 -0.63828080788E+01  0.45413533198E+02  0.00000000000E+00 0.  1.
       14    1    4    4    0    0 -0.24872966599E+02 -0.12067928219E+01  0.62749528042E+02  0.67510177647E+02  0.00000000000E+00 0. -1.
      -14    1    6    6    0    0  0.44709671771E+01 -0.11687853326E+03  0.14229554164E+03  0.18419718308E+03  0.00000000000E+00 0.  1.
</event>
<event>
12   0  0.9284400E-04  0.2816516E+03  0.7546771E-02  0.1095324E+00
       21   -1    0    0  501  502  0.00000000000E+00  0.00000000000E+00  0.28483549115E+03  0.28483549115E+03  0.00000000000E+00 0. -1.
       21   -1    0    0  502  503  0.00000000000E+00  0.00000000000E+00 -0.31811312276E+03  0.31811312276E+03  0.00000000000E+00 0.  1.
       -6    2    1    2    0  503  0.21712489004E+03 -0.49296584908E+02  0.94896148254E+02  0.29350370839E+03  0.16602944536E+03 0.  0.
      -24    2    3    3    0    0  0.23672471073E+03 -0.48677907891E+02  0.75953113828E+02  0.26583668319E+03  0.80573812379E+02 0.  0.
        6    2    1    2  501    0 -0.21712489004E+03  0.49296584908E+02 -0.12817377987E+03  0.30944490551E+03  0.17249423336E+03 0.  0.
       24    2    5    5    0    0 -0.16622511785E+03  0.17766024214E+02 -0.21326700889E+02  0.18687512395E+03  0.80753095064E+02 0.  0.
        5    1    5    5  501    0 -0.50899772197E+02  0.31530560694E+02 -0.10684707898E+03  0.12256978156E+03  0.46999998093E+01 0. -1.
       -5    1    3    3    0  503 -0.19599820685E+02 -0.61867701700E+00  0.18943034427E+02  0.27667025204E+02  0.46999998093E+01 0.  1.
       13    1    4    4    0    0  0.75358393371E+02 -0.13785450066E+02  0.64844041131E+02  0.10036770275E+03  0.00000000000E+00 0. -1.
      -13    1    6    6    0    0 -0.11910463183E+03 -0.67428882532E+01 -0.46576528493E+02  0.12806542419E+03  0.00000000000E+00 0.  1.
       14    1    6    6    0    0 -0.47120486013E+02  0.24508912467E+02  0.25249827604E+02  0.58809699765E+02  0.00000000000E+00 0. -1.
      -14    1    4    4    0    0  0.16136631736E+03 -0.34892457826E+02  0.11109072696E+02  0.16546898044E+03  0.00000000000E+00 0.  1.
</event>
<event>
12   0  0.9284400E-04  0.2317833E+03  0.7546771E-02  0.1125391E+00
        1   -1    0    0  502    0  0.00000000000E+00  0.00000000000E+00  0.30715361391E+03  0.30715361391E+03  0.00000000000E+00 0. -1.
       -1   -1    0    0    0  501  0.00000000000E+00  0.00000000000E+00 -0.17609116932E+03  0.17609116932E+03  0.00000000000E+00 0.  1.
        6    2    1    2  502    0 -0.15044748648E+03  0.28408862767E+02  0.45993654085E+02  0.23717896991E+03  0.17520541625E+03 0.  0.
       24    2    3    3    0    0 -0.90577076861E+02 -0.51968066192E+02  0.15826294236E+02  0.13240742676E+03  0.79852165375E+02 0.  0.
       -6    2    1    2    0  501  0.15044748648E+03 -0.28408862767E+02  0.85068790502E+02  0.24606581332E+03  0.17282990394E+03 0.  0.
      -24    2    5    5    0    0  0.11653392442E+03  0.40875046517E+02  0.82645684741E+02  0.16874601497E+03  0.79962387362E+02 0.  0.
        5    1    3    3  502    0 -0.59870409615E+02  0.80376928959E+02  0.30167359849E+02  0.10477154315E+03  0.46999998093E+01 0. -1.
       -5    1    5    5    0  501  0.33913562052E+02 -0.69283909284E+02  0.24231057615E+01  0.77319798348E+02  0.46999998093E+01 0.  1.
       13    1    6    6    0    0 -0.11311832638E+02 -0.32147018425E+01  0.47620196303E+01  0.12687343951E+02  0.00000000000E+00 0. -1.
      -13    1    4    4    0    0 -0.38455637135E+02 -0.10755678644E+02 -0.31474693882E+02  0.50844635956E+02  0.00000000000E+00 0.  1.
       14    1    4    4    0    0 -0.52121439726E+02 -0.41212387548E+02  0.47300988118E+02  0.81562790802E+02  0.00000000000E+00 0. -1.
      -14    1    6    6    0    0  0.12784575706E+03  0.44089748360E+02  0.77883665110E+02  0.15605867102E+03  0.00000000000E+00 0.  1.
</event>
<event>
12   0  0.9284400E-04  0.1996418E+03  0.7546771E-02  0.1150042E+00
        1   -1    0    0  502    0  0.00000000000E+00  0.00000000000E+00  0.13997303675E+03  0.13997303675E+03  0.00000000000E+00 0. -1.
       -1   -1    0    0    0  501  0.00000000000E+00  0.00000000000E+00 -0.29542163663E+03  0.29542163663E+03  0.00000000000E+00 0.  1.
        6    2    1    2  502    0  0.71831706192E+02 -0.70783058704E+02 -0.36159445294E+02  0.20240259582E+03  0.17172440099E+03 0.  0.
       24    2    3    3    0    0  0.27254692867E+02  0.12466804892E+02 -0.62569356404E+02  0.10423323548E+03  0.77790767520E+02 0.  0.
       -6    2    1    2    0  501 -0.71831706192E+02  0.70783058704E+02 -0.11928915458E+03  0.23299207756E+03  0.17287385688E+03 0.  0.
      -24    2    5    5    0    0 -0.16931261977E+02  0.43563599422E+02  0.63156287811E+01  0.93157856641E+02  0.80337066540E+02 0.  0.
        5    1    3    3  502    0  0.44577013326E+02 -0.83249863595E+02  0.26409911110E+02  0.98169360336E+02  0.46999998093E+01 0. -1.
       -5    1    5    5    0  501 -0.54900444215E+02  0.27219459281E+02 -0.12560478336E+03  0.13983422092E+03  0.46999998093E+01 0.  1.
       13    1    6    6    0    0 -0.47288084352E+02  0.40188903186E+02  0.47571758816E+00  0.62060753848E+02  0.00000000000E+00 0. -1.
      -13    1    4    4    0    0  0.53609632343E+02  0.17256911560E+02 -0.38493129719E+02  0.68216674737E+02  0.00000000000E+00 0.  1.
       14    1    4    4    0    0 -0.26354939477E+02 -0.47901066682E+01 -0.24076226685E+02  0.36016560748E+02  0.00000000000E+00 0. -1.
      -14    1    6    6    0    0  0.30356822375E+02  0.33746962356E+01  0.58399111930E+01  0.31097102793E+02  0.00000000000E+00 0.  1.
</event>
<event>
12   0  0.9284400E-04  0.1871045E+03  0.7546771E-02  0.1161099E+00
       -1   -1    0    0    0  501  0.00000000000E+00  0.00000000000E+00  0.77002502410E+03  0.77002502410E+03  0.00000000000E+00 0.  1.
        1   -1    0    0  502    0  0.00000000000E+00  0.00000000000E+00 -0.50240133814E+02  0.50240133814E+02  0.00000000000E+00 0. -1.
        6    2    1    2  502    0 -0.53563567952E+02  0.51761681940E+02  0.23398682277E+03  0.29979511281E+03  0.17198531597E+03 0.  0.
       24    2    3    3    0    0 -0.25626965546E+02  0.39786690647E+02  0.24880686994E+03  0.26565455091E+03  0.80173310874E+02 0.  0.
       -6    2    1    2    0  501  0.53563567952E+02 -0.51761681940E+02  0.48579806751E+03  0.52047004510E+03  0.17129208362E+03 0.  0.
      -24    2    5    5    0    0  0.54425620421E+01 -0.91023043667E+02  0.36649997275E+03  0.38589214518E+03  0.79219326695E+02 0.  0.
        5    1    3    3  502    0 -0.27936602406E+02  0.11974991293E+02 -0.14820047172E+02  0.34140561900E+02  0.46999998093E+01 0. -1.
       -5    1    5    5    0  501  0.48121005910E+02  0.39261361727E+02  0.11929809476E+03  0.13457789992E+03  0.46999998093E+01 0.  1.
       13    1    6    6    0    0  0.28250675554E+02 -0.56232728687E+02  0.11608477468E+03  0.13204505048E+03  0.00000000000E+00 0. -1.
      -13    1    4    4    0    0 -0.86777190048E+01  0.56328592691E+02  0.10107287629E+03  0.11603421686E+03  0.00000000000E+00 0.  1.
       14    1    4    4    0    0 -0.16949246541E+02 -0.16541902044E+02  0.14773399365E+03  0.14962033405E+03  0.00000000000E+00 0. -1.
      -14    1    6    6    0    0 -0.22808113512E+02 -0.34790314980E+02  0.25041519807E+03  0.25384709469E+03  0.00000000000E+00 0.  1.
</event>
<event>
12   0  0.9284400E-04  0.1923858E+03  0.7546771E-02  0.1156327E+00
        2   -1    0    0  502    0  0.00000000000E+00  0.00000000000E+00  0.31918195051E+03  0.31918195051E+03  0.00000000000E+00 0. -1.
       -2   -1    0    0    0  501  0.00000000000E+00  0.00000000000E+00 -0.12512407615E+03  0.12512407615E+03  0.00000000000E+00 0.  1.
        6    2    1    2  502    0  0.33319472160E+02  0.78292239946E+02  0.36857471587E+02  0.19577933283E+03  0.17242741050E+03 0.  0.
       24    2    3    3    0    0  0.39473759437E+02  0.67112616932E+02 -0.38498347388E+02  0.11920617386E+03  0.81643787883E+02 0.  0.
       -6    2    1    2    0  501 -0.33319472160E+02 -0.78292239946E+02  0.15720040277E+03  0.24852669384E+03  0.17266640917E+03 0.  0.
      -24    2    5    5    0    0 -0.81367115355E+02 -0.39186317987E+02  0.43826756696E+02  0.11924590342E+03  0.64363234075E+02 0.  0.
        5    1    3    3  502    0 -0.61542872772E+01  0.11179623014E+02  0.75355818975E+02  0.76573158967E+02  0.46999998093E+01 0. -1.
       -5    1    5    5    0  501  0.48047643195E+02 -0.39105921960E+02  0.11337364607E+03  0.12928079042E+03  0.46999998093E+01 0.  1.
       13    1    6    6    0    0 -0.91781713950E+01 -0.34338590699E+02  0.27840210370E+02  0.45149251985E+02  0.00000000000E+00 0. -1.
      -13    1    4    4    0    0  0.27247460549E+02  0.61986435767E+02  0.10433772962E+02  0.68509896684E+02  0.00000000000E+00 0.  1.
       14    1    4    4    0    0  0.12226298888E+02  0.51261811654E+01 -0.48932120350E+02  0.50696277179E+02  0.00000000000E+00 0. -1.
      -14    1    6    6    0    0 -0.72188943960E+02 -0.48477272878E+01  0.15986546326E+02  0.74096651432E+02  0.00000000000E+00 0.  1.
</event>
<event>
12   0  0.9284400E-04  0.2968162E+03  0.7546771E-02  0.1086860E+00
       21   -1    0    0  501  502  0.00000000000E+00  0.00000000000E+00  0.16284447561E+03  0.16284447561E+03  0.00000000000E+00 0.  1.
       21   -1    0    0  502  503  0.00000000000E+00  0.00000000000E+00 -0.54372111196E+03  0.54372111196E+03  0.00000000000E+00 0.  1.
       -6    2    1    2    0  503 -0.57051243815E+01 -0.24096388880E+03 -0.21651609003E+03  0.36739497510E+03  0.17321577971E+03 0.  0.
      -24    2    3    3    0    0  0.58840788972E+02 -0.11303803370E+03 -0.89084536800E+02  0.17558233191E+03  0.81567549129E+02 0.  0.
        6    2    1    2  501    0  0.57051243815E+01  0.24096388880E+03 -0.16436054632E+03  0.33917061247E+03  0.17299182359E+03 0.  0.
       24    2    5    5    0    0  0.32346490160E+02  0.13247735704E+03 -0.26739116317E+02  0.16185496754E+03  0.82978940838E+02 0.  0.
        5    1    5    5  501    0 -0.26641365778E+02  0.10848653176E+03 -0.13762143000E+03  0.17731564493E+03  0.46999998093E+01 0. -1.
       -5    1    3    3    0  503 -0.64545913353E+02 -0.12792585510E+03 -0.12743155323E+03  0.19181264320E+03  0.46999998093E+01 0.  1.
       13    1    4    4    0    0  0.53776481160E+02 -0.64689199615E+02 -0.12751119520E+02  0.85083450340E+02  0.00000000000E+00 0. -1.
      -13    1    6    6    0    0  0.31160145070E+02  0.13587885434E+03 -0.42458311103E+02  0.14572826040E+03  0.00000000000E+00 0.  1.
       14    1    6    6    0    0  0.11863450897E+01 -0.34014972985E+01  0.15719194787E+02  0.16126707143E+02  0.00000000000E+00 0. -1.
      -14    1    4    4    0    0  0.50643078123E+01 -0.48348834085E+02 -0.76333417280E+02  0.90498881565E+02  0.00000000000E+00 0.  1.
</event>
<event>
12   0  0.9284400E-04  0.1734910E+03  0.7546771E-02  0.1174255E+00
        2   -1    0    0  502    0  0.00000000000E+00  0.00000000000E+00  0.10338598528E+04  0.10338598528E+04  0.00000000000E+00 0. -1.
       -2   -1    0    0    0  501  0.00000000000E+00  0.00000000000E+00 -0.43153519599E+02  0.43153519599E+02  0.00000000000E+00 0.  1.
        6    2    1    2  502    0  0.51922990528E+01  0.96178267358E+01  0.80296483874E+03  0.82154290688E+03  0.17338037097E+03 0.  0.
       24    2    3    3    0    0  0.69121860824E+02  0.21239529241E+02  0.48454520306E+03  0.49652720385E+03  0.80785277764E+02 0.  0.
       -6    2    1    2    0  501 -0.51922990528E+01 -0.96178267358E+01  0.18774149445E+03  0.25547046551E+03  0.17291277410E+03 0.  0.
      -24    2    5    5    0    0  0.61726113296E+02 -0.24024853400E+02  0.10452216308E+03  0.14761322912E+03  0.80482769542E+02 0.  0.
        5    1    3    3  502    0 -0.63929561772E+02 -0.11621702505E+02  0.31841963568E+03  0.32501570304E+03  0.46999998093E+01 0. -1.
       -5    1    5    5    0  501 -0.66918412348E+02  0.14407026664E+02  0.83219331372E+02  0.10785723639E+03  0.46999998093E+01 0.  1.
       13    1    6    6    0    0  0.37935976326E+02  0.27630181981E+02  0.40611753769E+02  0.62063514244E+02  0.00000000000E+00 0. -1.
      -13    1    4    4    0    0  0.87005665081E+01 -0.27440335739E+02  0.92436134003E+02  0.96814827131E+02  0.00000000000E+00 0.  1.
       14    1    4    4    0    0  0.60421294316E+02  0.48679864980E+02  0.39210906906E+03  0.39971237672E+03  0.00000000000E+00 0. -1.
      -14    1    6    6    0    0  0.23790136970E+02 -0.51655035381E+02  0.63910409313E+02  0.85549714878E+02  0.00000000000E+00 0.  1.
</event>
<event>
12   0  0.9284400E-04  0.2159752E+03  0.7546771E-02  0.1136954E+00
       21   -1    0    0  503  502  0.00000000000E+00  0.00000000000E+00  0.25829766001E+04  0.25829766001E+04  0.00000000000E+00 0.  1.
       21   -1    0    0  501  503  0.00000000000E+00  0.00000000000E+00 -0.39527495537E+02  0.39527495537E+02  0.00000000000E+00 0.  1.
        6    2    1    2  501    0 -0.19324373153E+02  0.12751267328E+03  0.30526678805E+03  0.37394265571E+03  0.17324082842E+03 0.  0.
       24    2    3    3    0    0 -0.67646518215E+02  0.78663780770E+02  0.26044383709E+03  0.29176947923E+03  0.80835604146E+02 0.  0.
       -6    2    1    2    0  502  0.19324373153E+02 -0.12751267328E+03  0.22381823165E+04  0.22485614399E+04  0.17301894092E+03 0.  0.
      -24    2    5    5    0    0  0.75976619351E+02 -0.10081807346E+03  0.17359659360E+04  0.17424335297E+04  0.80994714819E+02 0.  0.
        5    1    3    3  501    0  0.48322145062E+02  0.48848892508E+02  0.44822950955E+02  0.82173176483E+02  0.46999998093E+01 0. -1.
       -5    1    5    5    0  502 -0.56652246198E+02 -0.26694599815E+02  0.50221638045E+03  0.50612791017E+03  0.46999998093E+01 0.  1.
       13    1    6    6    0    0  0.96257631869E+01 -0.16527931972E+02  0.58631390456E+02  0.61672261180E+02  0.00000000000E+00 0. -1.
      -13    1    4    4    0    0 -0.81270351809E+02  0.50321937036E+02  0.22455101971E+03  0.24404984713E+03  0.00000000000E+00 0.  1.
       14    1    4    4    0    0  0.13623833594E+02  0.28341843735E+02  0.35892817380E+02  0.47719632098E+02  0.00000000000E+00 0. -1.
      -14    1    6    6    0    0  0.66350856164E+02 -0.84290141492E+02  0.16773345456E+04  0.16807612686E+04  0.00000000000E+00 0.  1.
</event>
<event>
12   0  0.9284400E-04  0.2694677E+03  0.7546771E-02  0.1101756E+00
       21   -1    0    0  503  502  0.00000000000E+00  0.00000000000E+00  0.30040240780E+03  0.30040240780E+03  0.00000000000E+00 0.  1.
       21   -1    0    0  501  503  0.00000000000E+00  0.00000000000E+00 -0.24068408101E+03  0.24068408101E+03  0.00000000000E+00 0.  1.
        6    2    1    2  501    0  0.82791041123E+02 -0.18906300766E+03  0.33147148190E+02  0.27149872155E+03  0.17324446604E+03 0.  0.
       24    2    3    3    0    0  0.11251979711E+03 -0.18053023937E+03 -0.30814749766E+01  0.22363213401E+03  0.68919981173E+02 0.  0.
       -6    2    1    2    0  502 -0.82791041123E+02  0.18906300766E+03  0.26571178601E+02  0.26958776726E+03  0.17138366132E+03 0.  0.
      -24    2    5    5    0    0 -0.26992812992E+02  0.19422213836E+03  0.20102796332E+02  0.21298397887E+03  0.80667229125E+02 0.  0.
        5    1    3    3  501    0 -0.29728755990E+02 -0.85327682886E+01  0.36228623166E+02  0.47866587534E+02  0.46999998093E+01 0. -1.
       -5    1    5    5    0  502 -0.55798228131E+02 -0.51591306975E+01  0.64683822690E+01  0.56603788385E+02  0.46999998093E+01 0.  1.
       13    1    6    6    0    0  0.28657816105E+02  0.62946465508E+02  0.13906958207E+01  0.69177033607E+02  0.00000000000E+00 0. -1.
      -13    1    4    4    0    0  0.73183346667E+02 -0.14507884963E+03  0.23832959001E+02  0.16423058416E+03  0.00000000000E+00 0.  1.
       14    1    4    4    0    0  0.39336450447E+02 -0.35451389742E+02 -0.26914433978E+02  0.59401549851E+02  0.00000000000E+00 0. -1.
      -14    1    6    6    0    0 -0.55650629097E+02  0.13127567285E+03  0.18712100512E+02  0.14380694526E+03  0.00000000000E+00 0.  1.
</event>
<event>
11   0  0.9284400E-04  0.2381687E+03  0.7546771E-02  0.1121160E+00
       21   -1    0    0  503  502  0.00000000000E+00  0.00000000000E+00  0.17519321831E+03  0.17519321831E+03  0.00000000000E+00 0. -1.
       21   -1    0    0  501  503  0.00000000000E+00  0.00000000000E+00 -0.11313222753E+04  0.11313222753E+04  0.00000000000E+00 0. -1.
        6    2    1    2  501    0  0.62147206302E+02  0.15219915339E+03 -0.10306098673E+04  0.10577717180E+04  0.17232948473E+03 0.  0.
       24    2    3    3    0    0  0.33910749222E+02  0.42569549253E+02 -0.73425214264E+03  0.74049275783E+03  0.79001329039E+02 0.  0.
       -6    2    1    2    0  502 -0.62147206302E+02 -0.15219915339E+03  0.74480810324E+02  0.24874377559E+03  0.17117014122E+03 0.  0.
        5    1    3    3  501    0  0.28236457080E+02  0.10962960413E+03 -0.29635772467E+03  0.31727896019E+03  0.46999998093E+01 0. -1.
       -5    1    5    5    0  502  0.46621680136E+02 -0.29565886717E+02 -0.15189374707E+02  0.57450237756E+02  0.46999998093E+01 0.  1.
       13    1    5    5    0    0 -0.97416764782E+02 -0.11397142310E+03  0.66367644676E+02  0.16396394605E+03  0.00000000000E+00 0. -1.
      -13    1    4    4    0    0 -0.20578180090E+02  0.31830966841E+01 -0.75510990361E+02  0.78329453372E+02  0.00000000000E+00 0.  1.
       14    1    4    4    0    0  0.54488929312E+02  0.39386452569E+02 -0.65874115228E+03  0.66216330446E+03  0.00000000000E+00 0. -1.
      -14    1    5    5    0    0 -0.11352121656E+02 -0.86618435657E+01  0.23302540354E+02  0.27329591783E+02  0.00000000000E+00 0.  1.
</event>
<event>
12   0  0.9284400E-04  0.1737554E+03  0.7546771E-02  0.1174425E+00
       21   -1    0    0  503  502  0.00000000000E+00  0.00000000000E+00  0.22732918878E+03  0.22732918878E+03  0.00000000000E+00 0.  1.
       21   -1    0    0  501  503  0.00000000000E+00  0.00000000000E+00 -0.23039656357E+03  0.23039656357E+03  0.00000000000E+00 0.  1.
        6    2    1    2  501    0 -0.52560842878E+01 -0.16973938930E+02 -0.15147468999E+03  0.22921823772E+03  0.17111597754E+03 0.  0.
       24    2    3    3    0    0 -0.61357056666E+02  0.12544630209E+02 -0.62859483748E+02  0.12016132688E+03  0.81026993225E+02 0.  0.
       -6    2    1    2    0  502  0.52560842878E+01  0.16973938930E+02  0.14840731520E+03  0.22850751463E+03  0.17284447348E+03 0.  0.
      -24    2    5    5    0    0 -0.35483297596E+02  0.19688471561E+02  0.16583060262E+02  0.90424966453E+02  0.79088408440E+02 0.  0.
        5    1    3    3  501    0  0.56100972378E+02 -0.29518569139E+02 -0.88615206242E+02  0.10905691084E+03  0.46999998093E+01 0. -1.
       -5    1    5    5    0  502  0.40739381883E+02 -0.27145326317E+01  0.13182425494E+03  0.13808254818E+03  0.46999998093E+01 0.  1.
       13    1    6    6    0    0 -0.21829954644E+02  0.42879227620E+02 -0.13585748402E+02  0.49997476343E+02  0.00000000000E+00 0. -1.
      -13    1    4    4    0    0 -0.73057209025E+02 -0.12478361485E+01 -0.69550171020E+02  0.10087685153E+03  0.00000000000E+00 0.  1.
       14    1    4    4    0    0  0.11700152359E+02  0.13792466358E+02  0.66906872721E+01  0.19284475352E+02  0.00000000000E+00 0. -1.
      -14    1    6    6    0    0 -0.13653342951E+02 -0.23190756059E+02  0.30168808664E+02  0.40427490109E+02  0.00000000000E+00 0.  1.
</event>
<event>
12   0  0.9284400E-04  0.2591909E+03  0.7546771E-02  0.1107686E+00
       21   -1    0    0  503  502  0.00000000000E+00  0.00000000000E+00  0.43426060100E+03  0.43426060100E+03  0.00000000000E+00 0. -1.
       21   -1    0    0  501  503  0.00000000000E+00  0.00000000000E+00 -0.59322780219E+03  0.59322780219E+03  0.00000000000E+00 0. -1.
        6    2    1    2  501    0 -0.26824336502E+01 -0.19280296087E+03 -0.52128696217E+03  0.58200491299E+03  0.17265411854E+03 0.  0.
       24    2    3    3    0    0  0.53317064241E+01 -0.19134387571E+03 -0.53020599179E+03  0.56904364537E+03  0.77790556903E+02 0.  0.
       -6    2    1    2    0  502  0.26824336502E+01  0.19280296087E+03  0.36231976097E+03  0.44548349020E+03  0.17320436969E+03 0.  0.
      -24    2    5    5    0    0 -0.24464852385E+01  0.21706812825E+03  0.30874508150E+03  0.38625984259E+03  0.82149759955E+02 0.  0.
        5    1    3    3  501    0 -0.80141400743E+01 -0.14590851620E+01  0.89190296234E+01  0.12961267618E+02  0.46999998093E+01 0. -1.
       -5    1    5    5    0  502  0.51289188887E+01 -0.24265167379E+02  0.53574679475E+02  0.59223647608E+02  0.46999998093E+01 0.  1.
       13    1    6    6    0    0  0.23706504931E+02  0.88232885268E+02  0.18202175454E+03  0.20366383956E+03  0.00000000000E+00 0. -1.
      -13    1    4    4    0    0 -0.11294460257E+02 -0.10929942603E+03 -0.19793272739E+03  0.22638748626E+03  0.00000000000E+00 0.  1.
       14    1    4    4    0    0  0.16626166681E+02 -0.82044449672E+02 -0.33227326440E+03  0.34265615911E+03  0.00000000000E+00 0. -1.
      -14    1    6    6    0    0 -0.26152990170E+02  0.12883524298E+03  0.12672332696E+03  0.18259600303E+03  0.00000000000E+00 0.  1.
</event>
<event>
12   0  0.9284400E-04  0.2095099E+03  0.7546771E-02  0.1142048E+00
       21   -1    0    0  503  502  0.00000000000E+00  0.00000000000E+00  0.75299747859E+02  0.75299747859E+02  0.00000000000E+00 0.  1.
       21   -1    0    0  501  503  0.00000000000E+00  0.00000000000E+00 -0.58192548463E+03  0.58192548463E+03  0.00000000000E+00 0.  1.
        6    2    1    2  501    0 -0.10475105452E+03 -0.54530549458E+02 -0.24607907786E+03  0.32318618062E+03  0.17305499281E+03 0.  0.
       24    2    3    3    0    0 -0.11102388737E+03  0.15857487667E+02 -0.18136406338E+03  0.22724897564E+03  0.78558322039E+02 0.  0.
       -6    2    1    2    0  502  0.10475105452E+03  0.54530549458E+02 -0.26054665891E+03  0.33403905187E+03  0.17248525287E+03 0.  0.
      -24    2    5    5    0    0  0.84239905015E+02 -0.32415368275E+01 -0.24533862574E+03  0.27070110528E+03  0.77338075747E+02 0.  0.
        5    1    3    3  501    0  0.62728328500E+01 -0.70388037125E+02 -0.64715014483E+02  0.95937204983E+02  0.46999998093E+01 0. -1.
       -5    1    5    5    0  502  0.20511149501E+02  0.57772086285E+02 -0.15208033170E+02  0.63337946594E+02  0.46999998093E+01 0.  1.
       13    1    6    6    0    0  0.59905796120E+01 -0.29558369886E+02 -0.46725779345E+02  0.55613691928E+02  0.00000000000E+00 0. -1.
      -13    1    4    4    0    0 -0.80947707414E+02 -0.22075818860E+02 -0.85149002470E+02  0.11954173219E+03  0.00000000000E+00 0.  1.
       14    1    4    4    0    0 -0.30076179952E+02  0.37933306527E+02 -0.96215060910E+02  0.10770724345E+03  0.00000000000E+00 0. -1.
      -14    1    6    6    0    0  0.78249325403E+02  0.26316833058E+02 -0.19861284639E+03  0.21508741335E+03  0.00000000000E+00 0.  1.
</event>
<event>
12   0  0.9284400E-04  0.1850154E+03  0.7546771E-02  0.1163100E+00
       21   -1    0    0  501  502  0.00000000000E+00  0.00000000000E+00  0.14051231430E+03  0.14051231430E+03  0.00000000000E+00 0. -1.
       21   -1    0    0  502  503  0.00000000000E+00  0.00000000000E+00 -0.24327286124E+03  0.24327286124E+03  0.00000000000E+00 0. -1.
       -6    2    1    2    0  503 -0.63372030129E+02  0.11708156198E+02 -0.53202857763E+02  0.19251292301E+03  0.17342890857E+03 0.  0.
      -24    2    3    3    0    0 -0.84730746405E+02  0.14160425796E+02  0.15800022715E+02  0.12008574649E+03  0.82408305083E+02 0.  0.
        6    2    1    2  501    0  0.63372030129E+02 -0.11708156198E+02 -0.49557689176E+02  0.19127225253E+03  0.17313582791E+03 0.  0.
       24    2    5    5    0    0 -0.18503202883E+02  0.26234359004E+02 -0.46994459509E+02  0.10087397608E+03  0.83285471214E+02 0.  0.
        5    1    5    5  501    0  0.81875233013E+02 -0.37942515201E+02 -0.25632296673E+01  0.90398276450E+02  0.46999998093E+01 0. -1.
       -5    1    3    3    0  503  0.21358716276E+02 -0.24522695988E+01 -0.69002880477E+02  0.72427176526E+02  0.46999998093E+01 0.  1.
       13    1    4    4    0    0 -0.57575062153E+02 -0.27861567899E+02  0.25963962615E+02  0.69031022753E+02  0.00000000000E+00 0. -1.
      -13    1    6    6    0    0 -0.15849773852E+02 -0.89818497092E+01 -0.60408848387E+02  0.63096100662E+02  0.00000000000E+00 0.  1.
       14    1    6    6    0    0 -0.26534290314E+01  0.35216208713E+02  0.13414388878E+02  0.37777875413E+02  0.00000000000E+00 0. -1.
      -14    1    4    4    0    0 -0.27155684252E+02  0.42021993695E+02 -0.10163939900E+02  0.51054723735E+02  0.00000000000E+00 0.  1.
</event>
<event>
12   0  0.9284400E-04  0.1782503E+03  0.7546771E-02  0.1169620E+00
       21   -1    0    0  501  502  0.00000000000E+00  0.00000000000E+00  0.85425311434E+02  0.85425311434E+02  0.00000000000E+00 0. -1.
       21   -1    0    0  502  503  0.00000000000E+00  0.00000000000E+00 -0.59502953276E+03  0.59502953276E+03  0.00000000000E+00 0. -1.
       -6    2    1    2    0  503  0.34731798305E+02  0.27066041704E+02 -0.46377945539E+03  0.49685465968E+03  0.17272608715E+03 0.  0.
      -24    2    3    3    0    0 -0.12418111088E+02  0.18670775686E+02 -0.99353861940E+02  0.12926562611E+03  0.79596512881E+02 0.  0.
        6    2    1    2  501    0 -0.34731798305E+02 -0.27066041704E+02 -0.45824765940E+02  0.18360018451E+03  0.17225054471E+03 0.  0.
       24    2    5    5    0    0  0.21084729454E+02 -0.69369804390E+02 -0.27423507678E+02  0.11103442528E+03  0.79497542400E+02 0.  0.
        5    1    5    5  501    0 -0.55816527759E+02  0.42303762686E+02 -0.18401258261E+02  0.72565759228E+02  0.46999998093E+01 0. -1.
       -5    1    3    3    0  503  0.47149909393E+02  0.83952660174E+01 -0.36442559345E+03  0.36758903358E+03  0.46999998093E+01 0.  1.
       13    1    4    4    0    0  0.11267961699E+02 -0.24101739521E+01  0.10092956517E+02  0.15318083124E+02  0.00000000000E+00 0. -1.
      -13    1    6    6    0    0 -0.52396857883E+01 -0.58040869749E+02 -0.48208149028E+02  0.75632152561E+02  0.00000000000E+00 0.  1.
       14    1    6    6    0    0  0.26324415242E+02 -0.11328934640E+02  0.20784641349E+02  0.35402272723E+02  0.00000000000E+00 0. -1.
      -14    1    4    4    0    0 -0.23686072787E+02  0.21080949638E+02 -0.10944681846E+03  0.11394754298E+03  0.00000000000E+00 0.  1.
</event>
<event>
12   0  0.9284400E-04  0.1823886E+03  0.7546771E-02  0.1165511E+00
       -1   -1    0    0    0  501  0.00000000000E+00  0.00000000000E+00  0.41525711762E+02  0.41525711762E+02  0.00000000000E+00 0. -1.
        1   -1    0    0  502    0  0.00000000000E+00  0.00000000000E+00 -0.89252141497E+03  0.89252141497E+03  0.00000000000E+00 0.  1.
        6    2    1    2  502    0 -0.56945942427E+02  0.12117227234E+02 -0.27486230171E+03  0.32956562725E+03  0.17226302623E+03 0.  0.
       24    2    3    3    0    0 -0.93563009477E+02 -0.23335175371E+02 -0.15314294482E+03  0.19752254984E+03  0.79144355432E+02 0.  0.
       -6    2    1    2    0  501  0.56945942427E+02 -0.12117227234E+02 -0.57613340150E+03  0.60448149949E+03  0.17343159846E+03 0.  0.
      -24    2    5    5    0    0  0.94796696304E+02 -0.49868320309E-01 -0.50690357185E+03  0.52452426072E+03  0.95854331206E+02 0.  0.
        5    1    3    3  502    0  0.36617067050E+02  0.35452402605E+02 -0.12171935689E+03  0.13204307740E+03  0.46999998093E+01 0. -1.
       -5    1    5    5    0  501 -0.37850753877E+02 -0.12067358914E+02 -0.69229829646E+02  0.79957238767E+02  0.46999998093E+01 0.  1.
       13    1    6    6    0    0 -0.12878957607E+02  0.21268511782E+02 -0.10466162542E+03  0.10757449966E+03  0.00000000000E+00 0. -1.
      -13    1    4    4    0    0 -0.35813579400E+02 -0.43700499670E+02 -0.10645317029E+03  0.12051814637E+03  0.00000000000E+00 0.  1.
       14    1    4    4    0    0 -0.57749430077E+02  0.20365324299E+02 -0.46689774532E+02  0.77004403470E+02  0.00000000000E+00 0. -1.
      -14    1    6    6    0    0  0.10767565391E+03 -0.21318380102E+02 -0.40224194643E+03  0.41694976106E+03  0.00000000000E+00 0.  1.
</event>
<event>
12   0  0.9284400E-04  0.2172078E+03  0.7546771E-02  0.1135982E+00
        1   -1    0    0  502    0  0.00000000000E+00  0.00000000000E+00  0.60285958060E+03  0.60285958060E+03  0.00000000000E+00 0.  1.
       -1   -1    0    0    0  501  0.00000000000E+00  0.00000000000E+00 -0.15549602197E+03  0.15549602197E+03  0.00000000000E+00 0. -1.
        6    2    1    2  502    0  0.97657171485E+02 -0.87775584291E+02 -0.43352539710E+02  0.22187363769E+03  0.17351366535E+03 0.  0.
       24    2    3    3    0    0  0.77072326146E+02  0.13158029221E+02 -0.75303784174E+01  0.11271023984E+03  0.80830776157E+02 0.  0.
       -6    2    1    2    0  501 -0.97657171485E+02  0.87775584291E+02  0.49071609835E+03  0.53648196488E+03  0.17253733835E+03 0.  0.
      -24    2    5    5    0    0 -0.55555108200E+02  0.13146044995E+03  0.34229252322E+03  0.37606812859E+03  0.62408700849E+02 0.  0.
        5    1    3    3  502    0  0.20584845338E+02 -0.10093361351E+03 -0.35822161293E+02  0.10916339786E+03  0.46999998093E+01 0. -1.
       -5    1    5    5    0  501 -0.42102063285E+02 -0.43684865661E+02  0.14842357513E+03  0.16041383629E+03  0.46999998093E+01 0.  1.
       13    1    6    6    0    0  0.11223372250E+02  0.43468208360E+01  0.22420934475E+02  0.25447145984E+02  0.00000000000E+00 0. -1.
      -13    1    4    4    0    0  0.44504877352E+02 -0.20127202070E+02  0.25993939024E+02  0.55330581393E+02  0.00000000000E+00 0.  1.
       14    1    4    4    0    0  0.32567448795E+02  0.33285231291E+02 -0.33524317442E+02  0.57379658443E+02  0.00000000000E+00 0. -1.
      -14    1    6    6    0    0 -0.66778480450E+02  0.12711362912E+03  0.31987158874E+03  0.35062098260E+03  0.00000000000E+00 0.  1.
</event>
<event>
12   0  0.9284400E-04  0.3947732E+03  0.7546771E-02  0.1045605E+00
       -2   -1    0    0    0  501  0.00000000000E+00  0.00000000000E+00  0.10816874185E+03  0.10816874185E+03  0.00000000000E+00 0. -1.
        2   -1    0    0  502    0  0.00000000000E+00  0.00000000000E+00 -0.17967216634E+04  0.17967216634E+04  0.00000000000E+00 0.  1.
        6    2    1    2  502    0 -0.33054357879E+03  0.12883605488E+03 -0.41941042998E+03  0.57560508554E+03  0.17192533033E+03 0.  0.
       24    2    3    3    0    0 -0.84444256118E+02  0.82665067305E+02 -0.13135252077E+03  0.19390351917E+03  0.79879561158E+02 0.  0.
       -6    2    1    2    0  501  0.33054357879E+03 -0.12883605488E+03 -0.12691424916E+04  0.13292853197E+04  0.17441046632E+03 0.  0.
      -24    2    5    5    0    0  0.57786884592E+02  0.29857928124E+00 -0.34781250751E+03  0.35977874547E+03  0.71608603730E+02 0.  0.
        5    1    3    3  502    0 -0.24609932267E+03  0.46170987573E+02 -0.28805790921E+03  0.38170156637E+03  0.46999998093E+01 0. -1.
       -5    1    5    5    0  501  0.27275669420E+03 -0.12913463416E+03 -0.92132998405E+03  0.96950657423E+03  0.46999998093E+01 0.  1.
       13    1    6    6    0    0  0.50056020108E+02  0.50593057371E+01 -0.10136334637E+03  0.11316240414E+03  0.00000000000E+00 0. -1.
      -13    1    4    4    0    0 -0.89084915219E+02  0.51885053851E+02 -0.68530743550E+02  0.12379274512E+03  0.00000000000E+00 0.  1.
       14    1    4    4    0    0  0.46406591012E+01  0.30780013453E+02 -0.62821777220E+02  0.70110774052E+02  0.00000000000E+00 0. -1.
      -14    1    6    6    0    0  0.77308644839E+01 -0.47607264559E+01 -0.24644916114E+03  0.24661634132E+03  0.00000000000E+00 0.  1.
</event>
<event>
12   0  0.9284400E-04  0.1776509E+03  0.7546771E-02  0.1170975E+00
       21   -1    0    0  503  502  0.00000000000E+00  0.00000000000E+00  0.17538813264E+03  0.17538813264E+03  0.00000000000E+00 0.  1.
       21   -1    0    0  501  503  0.00000000000E+00  0.00000000000E+00 -0.27154327265E+03  0.27154327265E+03  0.00000000000E+00 0.  1.
        6    2    1    2  501    0 -0.26405053837E+02  0.19517884721E+02  0.84519967093E+02  0.19354762397E+03  0.17099381046E+03 0.  0.
       24    2    3    3    0    0  0.47222774177E+02  0.89437377471E+01  0.19693170837E+02  0.94767701146E+02  0.79266104717E+02 0.  0.
       -6    2    1    2    0  502  0.26405053837E+02 -0.19517884721E+02 -0.18067510710E+03  0.25338378132E+03  0.17459001008E+03 0.  0.
      -24    2    5    5    0    0  0.13798306618E+02 -0.24785038016E+02 -0.20679879995E+03  0.22353063566E+03  0.79971932838E+02 0.  0.
        5    1    3    3  501    0 -0.73627828014E+02  0.10574146974E+02  0.64826796256E+02  0.98779922825E+02  0.46999998093E+01 0. -1.
       -5    1    5    5    0  502  0.12606747219E+02  0.52671532943E+01  0.26123692854E+02  0.29853145660E+02  0.46999998093E+01 0.  1.
       13    1    6    6    0    0 -0.32990399495E+02 -0.63051059107E+01 -0.66817358008E+02  0.74784223941E+02  0.00000000000E+00 0. -1.
      -13    1    4    4    0    0  0.13401047107E+02  0.94987550886E+01  0.47954126659E+02  0.50689374384E+02  0.00000000000E+00 0.  1.
       14    1    4    4    0    0  0.33821727070E+02 -0.55501734150E+00 -0.28260955822E+02  0.44078326762E+02  0.00000000000E+00 0. -1.
      -14    1    6    6    0    0  0.46788706113E+02 -0.18479932105E+02 -0.13998144195E+03  0.14874641172E+03  0.00000000000E+00 0.  1.
</event>
<event>
12   0  0.9284400E-04  0.1986883E+03  0.7546771E-02  0.1152889E+00
       21   -1    0    0  503  502  0.00000000000E+00  0.00000000000E+00  0.44300514006E+02  0.44300514006E+02  0.00000000000E+00 0.  1.
       21   -1    0    0  501  503  0.00000000000E+00  0.00000000000E+00 -0.90586891159E+03  0.90586891159E+03  0.00000000000E+00 0.  1.
        6    2    1    2  501    0  0.41215014246E+02  0.76145611666E+02 -0.32227378498E+03  0.37859928336E+03  0.17883006821E+03 0.  0.
       24    2    3    3    0    0 -0.23359877823E+02 -0.45859122117E+00 -0.22348200185E+03  0.23781566571E+03  0.77885759339E+02 0.  0.
       -6    2    1    2    0  502 -0.41215014246E+02 -0.76145611666E+02 -0.53929461261E+03  0.57157014224E+03  0.16839512090E+03 0.  0.
      -24    2    5    5    0    0 -0.75406314891E+02 -0.31836288845E+02 -0.46196618314E+03  0.47599746241E+03  0.80381392381E+02 0.  0.
        5    1    3    3  501    0  0.64574892069E+02  0.76604202887E+02 -0.98791783129E+02  0.14078361765E+03  0.46999998093E+01 0. -1.
       -5    1    5    5    0  502  0.34191300645E+02 -0.44309322821E+02 -0.77328429463E+02  0.95572679831E+02  0.46999998093E+01 0.  1.
       13    1    6    6    0    0  0.11874832432E+02 -0.22498027263E+02 -0.13933107695E+03  0.14163446572E+03  0.00000000000E+00 0. -1.
      -13    1    4    4    0    0 -0.10036736298E+02  0.36019317074E+02 -0.68485731757E+02  0.78028345698E+02  0.00000000000E+00 0.  1.
       14    1    4    4    0    0 -0.13323141525E+02 -0.36477908295E+02 -0.15499627010E+03  0.15978732001E+03  0.00000000000E+00 0. -1.
      -14    1    6    6    0    0 -0.87281147323E+02 -0.93382615819E+01 -0.32263510619E+03  0.33436299669E+03  0.00000000000E+00 0.  1.
</event>
<event>
12   0  0.9284400E-04  0.1928547E+03  0.7546771E-02  0.1157105E+00
       21   -1    0    0  501  502  0.00000000000E+00  0.00000000000E+00  0.35284736811E+03  0.35284736811E+03  0.00000000000E+00 0.  1.
       21   -1    0    0  502  503  0.00000000000E+00  0.00000000000E+00 -0.10767843466E+03  0.10767843466E+03  0.00000000000E+00 0.  1.
       -6    2    1    2    0  503  0.68181171478E+02 -0.48610023526E+02  0.73832760392E+02  0.20650471102E+03  0.17372769680E+03 0.  0.
      -24    2    3    3    0    0  0.18797914543E+02 -0.86078439367E+02  0.15822747113E+02  0.12147624585E+03  0.82117352999E+02 0.  0.
        6    2    1    2  501    0 -0.68181171478E+02  0.48610023526E+02  0.17133617306E+03  0.25402109175E+03  0.16780650859E+03 0.  0.
       24    2    5    5    0    0 -0.49770789825E+02  0.45291896474E+02  0.19613586483E+03  0.22260347201E+03  0.80960119008E+02 0.  0.
        5    1    5    5  501    0 -0.18410381653E+02  0.33181270516E+01 -0.24799691777E+02  0.31417619741E+02  0.46999998093E+01 0. -1.
       -5    1    3    3    0  503  0.49383256935E+02  0.37468415841E+02  0.58010013280E+02  0.85028465175E+02  0.46999998093E+01 0.  1.
       13    1    4    4    0    0 -0.17430951881E+02 -0.52715039815E+01  0.26631419069E+02  0.32262351422E+02  0.00000000000E+00 0. -1.
      -13    1    6    6    0    0 -0.31086915640E+02 -0.13507808308E+02  0.29577498642E+02  0.44985393576E+02  0.00000000000E+00 0.  1.
       14    1    6    6    0    0 -0.18683874185E+02  0.58799704783E+02  0.16655836619E+03  0.17761807843E+03  0.00000000000E+00 0. -1.
      -14    1    4    4    0    0  0.36228866424E+02 -0.80806935386E+02 -0.10808671956E+02  0.89213894424E+02  0.00000000000E+00 0.  1.
</event>
<event>
12   0  0.9284400E-04  0.2153151E+03  0.7546771E-02  0.1137425E+00
       -2   -1    0    0    0  501  0.00000000000E+00  0.00000000000E+00  0.10321331685E+03  0.10321331685E+03  0.00000000000E+00 0. -1.
        2   -1    0    0  502    0  0.00000000000E+00  0.00000000000E+00 -0.48569641576E+03  0.48569641576E+03  0.00000000000E+00 0.  1.
        6    2    1    2  502    0 -0.92410315856E+02  0.88503384018E+02 -0.27163856198E+03  0.34636152953E+03  0.17264496902E+03 0.  0.
       24    2    3    3    0    0 -0.10271844373E+03  0.14287850414E+02 -0.21642084102E+03  0.25316662820E+03  0.80623444819E+02 0.  0.
       -6    2    1    2    0  501  0.92410315856E+02 -0.88503384018E+02 -0.11084453693E+03  0.24254820308E+03  0.17369687387E+03 0.  0.
      -24    2    5    5    0    0  0.12978569374E+03 -0.54356266183E+02 -0.66324403182E+02  0.17496805188E+03  0.80099705049E+02 0.  0.
        5    1    3    3  502    0  0.10308127876E+02  0.74215533605E+02 -0.55217720953E+02  0.93194901330E+02  0.46999998093E+01 0. -1.
       -5    1    5    5    0  501 -0.37375377886E+02 -0.34147117836E+02 -0.44520133743E+02  0.67580151194E+02  0.46999998093E+01 0.  1.
       13    1    6    6    0    0  0.10588577858E+03 -0.41484192353E+01 -0.48817790031E+02  0.11667126515E+03  0.00000000000E+00 0. -1.
      -13    1    4    4    0    0  0.68785827102E+00 -0.15002970401E+02 -0.69663718931E+02  0.71264268783E+02  0.00000000000E+00 0.  1.
       14    1    4    4    0    0 -0.10340630200E+03  0.29290820815E+02 -0.14675712209E+03  0.18190235942E+03  0.00000000000E+00 0. -1.
      -14    1    6    6    0    0  0.23899915165E+02 -0.50207846947E+02 -0.17506613151E+02  0.58296786738E+02  0.00000000000E+00 0.  1.
</event>
<event>
12   0  0.9284400E-04  0.2066511E+03  0.7546771E-02  0.1144246E+00
        1   -1    0    0  502    0  0.00000000000E+00  0.00000000000E+00  0.15195325306E+03  0.15195325306E+03  0.00000000000E+00 0.  1.
       -1   -1    0    0    0  501  0.00000000000E+00  0.00000000000E+00 -0.28481712295E+03  0.28481712295E+03  0.00000000000E+00 0. -1.
        6    2    1    2  502    0 -0.59669683854E+01 -0.11108571904E+03 -0.90946543196E+02  0.22414564714E+03  0.17203010122E+03 0.  0.
       24    2    3    3    0    0  0.41209395957E+02 -0.79734937364E+02 -0.62411053842E+01  0.12213789225E+03  0.82600476843E+02 0.  0.
       -6    2    1    2    0  501  0.59669683854E+01  0.11108571904E+03 -0.41917326687E+02  0.21262472887E+03  0.17628548257E+03 0.  0.
      -24    2    5    5    0    0  0.27603250791E+01  0.14574720310E+03 -0.16065940372E+02  0.16901182698E+03  0.84006051044E+02 0.  0.
        5    1    3    3  502    0 -0.47176364342E+02 -0.31350781676E+02 -0.84705437812E+02  0.10200775489E+03  0.46999998093E+01 0. -1.
       -5    1    5    5    0  501  0.32066433063E+01 -0.34661484063E+02 -0.25851386315E+02  0.43612901891E+02  0.46999998093E+01 0.  1.
       13    1    6    6    0    0  0.33362643722E+02  0.72387260784E+02 -0.35390739928E+02  0.87209437521E+02  0.00000000000E+00 0. -1.
      -13    1    4    4    0    0 -0.24915789953E+02 -0.13664054558E+02  0.47072748683E+00  0.28420495427E+02  0.00000000000E+00 0.  1.
       14    1    4    4    0    0  0.66125185909E+02 -0.66070882806E+02 -0.67118328710E+01  0.93717396821E+02  0.00000000000E+00 0. -1.
      -14    1    6    6    0    0 -0.30602318643E+02  0.73359942319E+02  0.19324799556E+02  0.81802389460E+02  0.00000000000E+00 0.  1.
</event>
<event>
12   0  0.9284400E-04  0.2308417E+03  0.7546771E-02  0.1126049E+00
        2   -1    0    0  502    0  0.00000000000E+00  0.00000000000E+00  0.11657296480E+03  0.11657296480E+03  0.00000000000E+00 0. -1.
       -2   -1    0    0    0  501  0.00000000000E+00  0.00000000000E+00 -0.46154802979E+03  0.46154802979E+03  0.00000000000E+00 0.  1.
        6    2    1    2  502    0  0.97932445797E+02 -0.11809628027E+03 -0.14362006692E+03  0.27121669699E+03  0.17144759477E+03 0.  0.
       24    2    3    3    0    0  0.40825546319E+02  0.12908580067E+02 -0.42625427550E+02  0.96158196543E+02  0.74807185597E+02 0.  0.
       -6    2    1    2    0  501 -0.97932445797E+02  0.11809628027E+03 -0.20135499807E+03  0.30690429759E+03  0.17351921300E+03 0.  0.
      -24    2    5    5    0    0  0.61488985282E+01  0.16126156330E+02 -0.48683538475E+02  0.95808354985E+02  0.80692577697E+02 0.  0.
        5    1    3    3  502    0  0.57106899478E+02 -0.13100486034E+03 -0.10099463937E+03  0.17505850045E+03  0.46999998093E+01 0. -1.
       -5    1    5    5    0  501 -0.10408134433E+03  0.10197012394E+03 -0.15267145959E+03  0.21109594261E+03  0.46999998093E+01 0.  1.
       13    1    6    6    0    0 -0.39806287346E+01  0.21036844328E+02  0.18128763289E+02  0.28054345168E+02  0.00000000000E+00 0. -1.
      -13    1    4    4    0    0 -0.14281391875E+02  0.20587953905E+01 -0.36998046637E+02  0.39712117134E+02  0.00000000000E+00 0.  1.
       14    1    4    4    0    0  0.55106938194E+02  0.10849784676E+02 -0.56273809136E+01  0.56446079409E+02  0.00000000000E+00 0. -1.
      -14    1    6    6    0    0  0.10129527263E+02 -0.49106879989E+01 -0.66812301764E+02  0.67754009817E+02  0.00000000000E+00 0.  1.
</event>
<event>
12   0  0.9284400E-04  0.1806891E+03  0.7546771E-02  0.1167524E+00
       21   -1    0    0  503  502  0.00000000000E+00  0.00000000000E+00  0.85101866447E+02  0.85101866447E+02  0.00000000000E+00 0. -1.
       21   -1    0    0  501  503  0.00000000000E+00  0.00000000000E+00 -0.39917007165E+03  0.39917007165E+03  0.00000000000E+00 0. -1.
        6    2    1    2  501    0  0.48135097608E+02 -0.22640570707E+02 -0.21040031115E+03  0.27733886164E+03  0.17268170193E+03 0.  0.
       24    2    3    3    0    0 -0.20496266786E+02  0.10262309807E+02 -0.34789486451E+02  0.85886216132E+02  0.75104738860E+02 0.  0.
       -6    2    1    2    0  502 -0.48135097608E+02  0.22640570707E+02 -0.10366789406E+03  0.20693307645E+03  0.17101076811E+03 0.  0.
      -24    2    5    5    0    0 -0.26290855267E+02  0.50799860906E+02 -0.85949373970E+01  0.10529118728E+03  0.87980260467E+02 0.  0.
        5    1    3    3  501    0  0.68631364393E+02 -0.32902880514E+02 -0.17561082469E+03  0.19145264551E+03  0.46999998093E+01 0. -1.
       -5    1    5    5    0  502 -0.21844242341E+02 -0.28159290199E+02 -0.95072956658E+02  0.10164188917E+03  0.46999998093E+01 0.  1.
       13    1    6    6    0    0 -0.54861771109E+02  0.52985303787E+02 -0.70264813833E+01  0.76593914819E+02  0.00000000000E+00 0. -1.
      -13    1    4    4    0    0  0.17654284246E+02 -0.15820648918E+02  0.57695517994E+01  0.24397836224E+02  0.00000000000E+00 0.  1.
       14    1    4    4    0    0 -0.38150551032E+02  0.26082958725E+02 -0.40559038250E+02  0.61488379908E+02  0.00000000000E+00 0. -1.
      -14    1    6    6    0    0  0.28570915842E+02 -0.21854428816E+01 -0.15684560137E+01  0.28697272464E+02  0.00000000000E+00 0.  1.
</event>
<event>
12   0  0.9284400E-04  0.2088474E+03  0.7546771E-02  0.1142604E+00
       21   -1    0    0  503  502  0.00000000000E+00  0.00000000000E+00  0.49459733992E+03  0.49459733992E+03  0.00000000000E+00 0. -1.
       21   -1    0    0  501  503  0.00000000000E+00  0.00000000000E+00 -0.16339807740E+03  0.16339807740E+03  0.00000000000E+00 0.  1.
        6    2    1    2  501    0 -0.37885548567E+02  0.10859589418E+03 -0.57860086766E+02  0.21671419235E+03  0.17432403305E+03 0.  0.
       24    2    3    3    0    0 -0.36741183428E+02 -0.61607590344E+00 -0.63631443594E+02  0.10724290598E+03  0.78113930633E+02 0.  0.
       -6    2    1    2    0  502  0.37885548567E+02 -0.10859589418E+03  0.38905934929E+03  0.44128122497E+03  0.17359020485E+03 0.  0.
      -24    2    5    5    0    0  0.15585076340E+02 -0.14408188413E+03  0.29355066944E+03  0.33687545660E+03  0.79439245911E+02 0.  0.
        5    1    3    3  501    0 -0.11443651395E+01  0.10921197009E+03  0.57713568280E+01  0.10947128637E+03  0.46999998093E+01 0. -1.
       -5    1    5    5    0  502  0.22300472228E+02  0.35485989952E+02  0.95508679842E+02  0.10440576836E+03  0.46999998093E+01 0.  1.
       13    1    6    6    0    0  0.67254917931E+01 -0.11717583637E+03  0.28347150611E+03  0.30680857818E+03  0.00000000000E+00 0. -1.
      -13    1    4    4    0    0 -0.59747438594E+02  0.95719735785E+01 -0.38730045710E+02  0.71842853071E+02  0.00000000000E+00 0.  1.
       14    1    4    4    0    0  0.23006255166E+02 -0.10188049482E+02 -0.24901397884E+02  0.35400052904E+02  0.00000000000E+00 0. -1.
      -14    1    6    6    0    0  0.88595845465E+01 -0.26906047762E+02  0.10079163332E+02  0.30066878421E+02  0.00000000000E+00 0.  1.
</event>
<event>
12   0  0.9284400E-04  0.1906191E+03  0.7546771E-02  0.1158243E+00
       21   -1    0    0  503  502  0.00000000000E+00  0.00000000000E+00  0.30563559544E+03  0.30563559544E+03  0.00000000000E+00 0. -1.
       21   -1    0    0  501  503  0.00000000000E+00  0.00000000000E+00 -0.15783430298E+03  0.15783430298E+03  0.00000000000E+00 0.  1.
        6    2    1    2  501    0 -0.81284386081E+02 -0.13015794249E+02 -0.42370848846E+02  0.19527138403E+03  0.17192749131E+03 0.  0.
       24    2    3    3    0    0 -0.67739418260E+02 -0.12416696327E+02 -0.92883268816E+02  0.14276024577E+03  0.83728030028E+02 0.  0.
       -6    2    1    2    0  502  0.81284386081E+02  0.13015794249E+02  0.19017214131E+03  0.26819851439E+03  0.17025991151E+03 0.  0.
      -24    2    5    5    0    0 -0.70649247839E+01  0.50049666934E+02  0.87411316972E+02  0.12763185592E+03  0.78065805499E+02 0.  0.
        5    1    3    3  501    0 -0.13544967821E+02 -0.59909792274E+00  0.50512419970E+02  0.52511138256E+02  0.46999998093E+01 0. -1.
       -5    1    5    5    0  502  0.88349310865E+02 -0.37033872684E+02  0.10276082433E+03  0.14056665847E+03  0.46999998093E+01 0.  1.
       13    1    6    6    0    0  0.29952825421E+02  0.46019530754E+02  0.60413399114E+02  0.81637906354E+02  0.00000000000E+00 0. -1.
      -13    1    4    4    0    0 -0.46926972024E+02 -0.36667837603E+02 -0.19408919894E+02  0.62636867652E+02  0.00000000000E+00 0.  1.
       14    1    4    4    0    0 -0.20812446237E+02  0.24251141276E+02 -0.73474348921E+02  0.80123378118E+02  0.00000000000E+00 0. -1.
      -14    1    6    6    0    0 -0.37017750205E+02  0.40301361801E+01  0.26997917859E+02  0.45993949565E+02  0.00000000000E+00 0.  1.
</event>
<event>
12   0  0.9284400E-04  0.1800201E+03  0.7546771E-02  0.1167787E+00
       21   -1    0    0  503  502  0.00000000000E+00  0.00000000000E+00  0.54218428538E+03  0.54218428538E+03  0.00000000000E+00 0.  1.
       21   -1    0    0  501  503  0.00000000000E+00  0.00000000000E+00 -0.15889986386E+03  0.15889986386E+03  0.00000000000E+00 0.  1.
        6    2    1    2  501    0 -0.48700487980E+02 -0.72143056862E+01 -0.85237412907E+02  0.19916787385E+03  0.17314341361E+03 0.  0.
       24    2    3    3    0    0 -0.53156033150E+02 -0.67115000136E+02 -0.68549463560E+02  0.13664969465E+03  0.81511489927E+02 0.  0.
       -6    2    1    2    0  502  0.48700487980E+02  0.72143056862E+01  0.46852183443E+03  0.50191627540E+03  0.17315731125E+03 0.  0.
      -24    2    5    5    0    0  0.37912082009E+02 -0.58466400742E+02  0.35629801349E+03  0.37135356677E+03  0.78099623298E+02 0.  0.
        5    1    3    3  501    0  0.44555451702E+01  0.59900694450E+02 -0.16687949348E+02  0.62518179196E+02  0.46999998093E+01 0. -1.
       -5    1    5    5    0  502  0.10788405971E+02  0.65680706428E+02  0.11222382094E+03  0.13056270863E+03  0.46999998093E+01 0.  1.
       13    1    6    6    0    0 -0.28031821297E+01 -0.18092237467E+02  0.11066819621E+02  0.21393021833E+02  0.00000000000E+00 0. -1.
      -13    1    4    4    0    0 -0.30040956490E+02 -0.72052668146E+02 -0.16934499032E+02  0.79880055779E+02  0.00000000000E+00 0.  1.
       14    1    4    4    0    0 -0.23115076660E+02  0.49376680100E+01 -0.51614964527E+02  0.56769638871E+02  0.00000000000E+00 0. -1.
      -14    1    6    6    0    0  0.40715264138E+02 -0.40374163275E+02  0.34523119386E+03  0.34996054493E+03  0.00000000000E+00 0.  1.
</event>
<event>
12   0  0.9284400E-04  0.2230037E+03  0.7546771E-02  0.1131718E+00
       21   -1    0    0  501  502  0.00000000000E+00  0.00000000000E+00  0.59052637124E+03  0.59052637124E+03  0.00000000000E+00 0. -1.
       21   -1    0    0  502  503  0.00000000000E+00  0.00000000000E+00 -0.89088724611E+02  0.89088724611E+02  0.00000000000E+00 0.  1.
       -6    2    1    2    0  503  0.13717167460E+03 -0.30586324269E+02  0.17016879486E+03  0.28027853284E+03  0.17276297544E+03 0.  0.
      -24    2    3    3    0    0  0.16797028765E+03 -0.21310310045E+02  0.15897623603E+03  0.24589885313E+03  0.80775339675E+02 0.  0.
        6    2    1    2  501    0 -0.13717167460E+03  0.30586324269E+02  0.33126885177E+03  0.39933656301E+03  0.17314458369E+03 0.  0.
       24    2    5    5    0    0 -0.70089716309E+02  0.74448919417E+02  0.26505213547E+03  0.29526610661E+03  0.80462595392E+02 0.  0.
        5    1    5    5  501    0 -0.67081958289E+02 -0.43862595148E+02  0.66216716296E+02  0.10407045640E+03  0.46999998093E+01 0. -1.
       -5    1    3    3    0  503 -0.30798613051E+02 -0.92760142234E+01  0.11192558825E+02  0.34379679710E+02  0.46999998093E+01 0.  1.
       13    1    4    4    0    0  0.44304370270E+02  0.26825794335E+02  0.25687092108E+02  0.57812863342E+02  0.00000000000E+00 0. -1.
      -13    1    6    6    0    0  0.10354252392E+02  0.35677263266E+02  0.11277561043E+03  0.11873675069E+03  0.00000000000E+00 0.  1.
       14    1    6    6    0    0 -0.80443968701E+02  0.38771656151E+02  0.15227652505E+03  0.17652935592E+03  0.00000000000E+00 0. -1.
      -14    1    4    4    0    0  0.12366591738E+03 -0.48136104380E+02  0.13328914392E+03  0.18808598979E+03  0.00000000000E+00 0.  1.
</event>
<event>
12   0  0.9284400E-04  0.2377203E+03  0.7546771E-02  0.1121428E+00
       21   -1    0    0  503  502  0.00000000000E+00  0.00000000000E+00  0.88016919535E+03  0.88016919535E+03  0.00000000000E+00 0.  1.
       21   -1    0    0  501  503  0.00000000000E+00  0.00000000000E+00 -0.12468574642E+03  0.12468574642E+03  0.00000000000E+00 0. -1.
        6    2    1    2  501    0  0.15641242653E+03 -0.39795334161E+02  0.27059068369E+02  0.23862192124E+03  0.17366551852E+03 0.  0.
       24    2    3    3    0    0  0.54203777678E+02 -0.33224462952E+02  0.73304889194E+02  0.12614725658E+03  0.80607748450E+02 0.  0.
       -6    2    1    2    0  502 -0.15641242653E+03  0.39795334161E+02  0.72842438056E+03  0.76623302053E+03  0.17453494710E+03 0.  0.
      -24    2    5    5    0    0 -0.16013930485E+03 -0.14420078121E+02  0.60004113420E+03  0.62674270368E+03  0.83093430963E+02 0.  0.
        5    1    3    3  501    0  0.10220864885E+03 -0.65708712083E+01 -0.46245820825E+02  0.11247466466E+03  0.46999998093E+01 0. -1.
       -5    1    5    5    0  502  0.37268783208E+01  0.54215412281E+02  0.12838324636E+03  0.13949031685E+03  0.46999998093E+01 0.  1.
       13    1    6    6    0    0 -0.10123947575E+03 -0.19499173406E+01  0.22283958451E+03  0.24476665225E+03  0.00000000000E+00 0. -1.
      -13    1    4    4    0    0  0.19871857816E+01 -0.32127153105E+02 -0.44345525675E+01  0.32492585776E+02  0.00000000000E+00 0.  1.
       14    1    4    4    0    0  0.52216591896E+02 -0.10973098477E+01  0.77739441762E+02  0.93654670805E+02  0.00000000000E+00 0. -1.
      -14    1    6    6    0    0 -0.58899829104E+02 -0.12470160780E+02  0.37720154969E+03  0.38197605143E+03  0.00000000000E+00 0.  1.
</event>
<event>
12   0  0.9284400E-04  0.3076835E+03  0.7546771E-02  0.1081578E+00
       21   -1    0    0  503  502  0.00000000000E+00  0.00000000000E+00  0.16424492539E+03  0.16424492539E+03  0.00000000000E+00 0.  1.
       21   -1    0    0  501  503  0.00000000000E+00  0.00000000000E+00 -0.67956532958E+03  0.67956532958E+03  0.00000000000E+00 0. -1.
        6    2    1    2  501    0  0.18654063583E+03 -0.17132437484E+03 -0.42313748791E+03  0.52261430032E+03  0.17300555770E+03 0.  0.
       24    2    3    3    0    0  0.19952400284E+02 -0.87189162990E+02 -0.16093728603E+03  0.20074257127E+03  0.79979506543E+02 0.  0.
       -6    2    1    2    0  502 -0.18654063583E+03  0.17132437484E+03 -0.92182916279E+02  0.32119595464E+03  0.17469888665E+03 0.  0.
      -24    2    5    5    0    0 -0.12090122070E+03  0.83766190984E+02  0.14576591973E+02  0.16824285406E+03  0.80369776591E+02 0.  0.
        5    1    3    3  501    0  0.16658823555E+03 -0.84135211846E+02 -0.26220020188E+03  0.32187172905E+03  0.46999998093E+01 0. -1.
       -5    1    5    5    0  502 -0.65639415130E+02  0.87558183852E+02 -0.10675950825E+03  0.15295310058E+03  0.46999998093E+01 0.  1.
       13    1    6    6    0    0 -0.18370163957E+00  0.32872941332E+02  0.17422450059E+02  0.37204916129E+02  0.00000000000E+00 0. -1.
      -13    1    4    4    0    0 -0.13105385970E+02 -0.18185847124E+02 -0.10125124654E+03  0.10370289824E+03  0.00000000000E+00 0.  1.
       14    1    4    4    0    0  0.33057786255E+02 -0.69003315867E+02 -0.59686039486E+02  0.97039673032E+02  0.00000000000E+00 0. -1.
      -14    1    6    6    0    0 -0.12071751906E+03  0.50893249652E+02 -0.28458580856E+01  0.13103793793E+03  0.00000000000E+00 0.  1.
</event>
<event>
12   0  0.9284400E-04  0.1759368E+03  0.7546771E-02  0.1171851E+00
       21   -1    0    0  503  502  0.00000000000E+00  0.00000000000E+00  0.92166656451E+02  0.92166656451E+02  0.00000000000E+00 0. -1.
       21   -1    0    0  501  503  0.00000000000E+00  0.00000000000E+00 -0.39008212486E+03  0.39008212486E+03  0.00000000000E+00 0. -1.
        6    2    1    2  501    0 -0.18214817758E+02 -0.21165400605E+02 -0.23930641744E+03  0.29702072921E+03  0.17370664462E+03 0.  0.
       24    2    3    3    0    0 -0.52180609075E+02  0.41113857228E+02 -0.14094554499E+03  0.17565626916E+03  0.81094469741E+02 0.  0.
       -6    2    1    2    0  502  0.18214817758E+02  0.21165400605E+02 -0.58609050965E+02  0.18522805210E+03  0.17347811580E+03 0.  0.
      -24    2    5    5    0    0  0.70717309119E+01  0.51180809793E+02  0.22101217370E+02  0.98272140359E+02  0.80619260058E+02 0.  0.
        5    1    3    3  501    0  0.33965791317E+02 -0.62279257834E+02 -0.98360872447E+02  0.12136446005E+03  0.46999998093E+01 0. -1.
       -5    1    5    5    0  502  0.11143086846E+02 -0.30015409188E+02 -0.80710268336E+02  0.86955911738E+02  0.46999998093E+01 0.  1.
       13    1    6    6    0    0 -0.35827499178E+02  0.19282094685E+02  0.71216955826E+00  0.40692948508E+02  0.00000000000E+00 0. -1.
      -13    1    4    4    0    0 -0.65305344056E+02  0.13594783880E+02 -0.12392760078E+03  0.14073967581E+03  0.00000000000E+00 0.  1.
       14    1    4    4    0    0  0.13124734981E+02  0.27519073348E+02 -0.17017944214E+02  0.34916593355E+02  0.00000000000E+00 0. -1.
      -14    1    6    6    0    0  0.42899230090E+02  0.31898715109E+02  0.21389047812E+02  0.57579191851E+02  0.00000000000E+00 0.  1.
</event>
<event>
12   0  0.9284400E-04  0.2382974E+03  0.7546771E-02  0.1121253E+00
       21   -1    0    0  501  502  0.00000000000E+00  0.00000000000E+00  0.51961819576E+03  0.51961819576E+03  0.00000000000E+00 0.  1.
       21   -1    0    0  502  503  0.00000000000E+00  0.00000000000E+00 -0.13893142852E+03  0.13893142852E+03  0.00000000000E+00 0. -1.
       -6    2    1    2    0  503 -0.32647252115E+02 -0.15821999398E+03  0.34407171397E+03  0.41745567787E+03  0.17258183295E+03 0.  0.
      -24    2    3    3    0    0  0.33531043029E+02 -0.14450350288E+03  0.24468593775E+03  0.29717545759E+03  0.80227496990E+02 0.  0.
        6    2    1    2  501    0  0.32647252115E+02  0.15821999398E+03  0.36615053271E+02  0.24109394642E+03  0.17517482498E+03 0.  0.
       24    2    5    5    0    0  0.48510286027E+02  0.24074774658E+02 -0.11533231405E+02  0.97612508500E+02  0.80388704205E+02 0.  0.
        5    1    5    5  501    0 -0.15863033912E+02  0.13414521932E+03  0.48148284676E+02  0.14348143792E+03  0.46999998093E+01 0. -1.
       -5    1    3    3    0  503 -0.66178295144E+02 -0.13716491103E+02  0.99385776222E+02  0.12028022028E+03  0.46999998093E+01 0.  1.
       13    1    4    4    0    0  0.18700433671E+02 -0.14240044164E+03  0.17744144141E+03  0.22828284458E+03  0.00000000000E+00 0. -1.
      -13    1    6    6    0    0  0.45265068535E+01 -0.23649528215E+02  0.14018653495E+02  0.27862377768E+02  0.00000000000E+00 0.  1.
       14    1    6    6    0    0  0.43983779173E+02  0.47724302873E+02 -0.25551884900E+02  0.69750130731E+02  0.00000000000E+00 0. -1.
      -14    1    4    4    0    0  0.14830609357E+02 -0.21030612385E+01  0.67244496332E+02  0.68892613011E+02  0.00000000000E+00 0.  1.
</event>
<event>
12   0  0.9284400E-04  0.2845109E+03  0.7546771E-02  0.1093436E+00
       21   -1    0    0  501  502  0.00000000000E+00  0.00000000000E+00  0.43224175564E+03  0.43224175564E+03  0.00000000000E+00 0.  1.
       21   -1    0    0  502  503  0.00000000000E+00  0.00000000000E+00 -0.20132260347E+03  0.20132260347E+03  0.00000000000E+00 0. -1.
        6    2    1    2  501    0 -0.21029024619E+03  0.83427740135E+02  0.20155526915E+03  0.34754221946E+03  0.17023187809E+03 0.  0.
       24    2    3    3    0    0 -0.89515975233E+02  0.72732110094E+02  0.40895597754E+02  0.14621055022E+03  0.80012532887E+02 0.  0.
       -6    2    1    2    0  503  0.21029024619E+03 -0.83427740135E+02  0.29363883024E+02  0.28602213965E+03  0.17252319056E+03 0.  0.
      -24    2    5    5    0    0  0.17051151785E+03 -0.10727274320E+03 -0.20030355971E+02  0.21810445239E+03  0.81158596815E+02 0.  0.
        5    1    3    3  501    0 -0.12077427096E+03  0.10695630041E+02  0.16065967140E+03  0.20133166924E+03  0.46999998093E+01 0. -1.
       -5    1    5    5    0  503  0.39778728337E+02  0.23845003066E+02  0.49394238995E+02  0.67917687265E+02  0.46999998093E+01 0.  1.
       13    1    6    6    0    0  0.10494514447E+03 -0.30137608772E+02 -0.37347955129E+02  0.11539769739E+03  0.00000000000E+00 0. -1.
      -13    1    4    4    0    0 -0.40310525177E+02  0.49527344305E+02  0.60904187759E+02  0.88245205878E+02  0.00000000000E+00 0.  1.
       14    1    4    4    0    0 -0.49205450056E+02  0.23204765790E+02 -0.20008590005E+02  0.57965344341E+02  0.00000000000E+00 0. -1.
      -14    1    6    6    0    0  0.65566373383E+02 -0.77135134430E+02  0.17317599158E+02  0.10270675500E+03  0.00000000000E+00 0.  1.
</event>
<event>
12   0  0.9284400E-04  0.3423642E+03  0.7546771E-02  0.1065864E+00
       21   -1    0    0  503  502  0.00000000000E+00  0.00000000000E+00  0.11774887489E+04  0.11774887489E+04  0.00000000000E+00 0. -1.
       21   -1    0    0  501  503  0.00000000000E+00  0.00000000000E+00 -0.10275471902E+03  0.10275471902E+03  0.00000000000E+00 0.  1.
        6    2    1    2  501    0  0.21410212700E+03  0.20357816121E+03  0.65436945717E+03  0.73852057032E+03  0.17300132310E+03 0.  0.
       24    2    3    3    0    0  0.50280981985E+02  0.14760009105E+03  0.29294359220E+03  0.33774425145E+03  0.62779512204E+02 0.  0.
       -6    2    1    2    0  502 -0.21410212700E+03 -0.20357816121E+03  0.42036457269E+03  0.54172289759E+03  0.17167858134E+03 0.  0.
      -24    2    5    5    0    0 -0.12026347218E+03 -0.35086368747E+02  0.18325769044E+03  0.23604833065E+03  0.80256322390E+02 0.  0.
        5    1    3    3  501    0  0.16382114502E+03  0.55978070166E+02  0.36142586497E+03  0.40077631886E+03  0.46999998093E+01 0. -1.
       -5    1    5    5    0  502 -0.93838654822E+02 -0.16849179247E+03  0.23710688226E+03  0.30567456695E+03  0.46999998093E+01 0.  1.
       13    1    6    6    0    0 -0.37189875985E+02 -0.23428148149E+02  0.12865319071E+03  0.13595443531E+03  0.00000000000E+00 0. -1.
      -13    1    4    4    0    0  0.81651849550E-01  0.47719654262E+02  0.44234705984E+02  0.65068281700E+02  0.00000000000E+00 0.  1.
       14    1    4    4    0    0  0.50199330136E+02  0.99880436787E+02  0.24870888622E+03  0.27267596976E+03  0.00000000000E+00 0. -1.
      -14    1    6    6    0    0 -0.83073596195E+02 -0.11658220598E+02  0.54604499726E+02  0.10009389533E+03  0.00000000000E+00 0.  1.
</event>
<event>
12   0  0.9284400E-04  0.2985606E+03  0.7546771E-02  0.1086439E+00
       21   -1    0    0  503  502  0.00000000000E+00  0.00000000000E+00  0.13002525368E+04  0.13002525368E+04  0.00000000000E+00 0.  1.
       21   -1    0    0  501  503  0.00000000000E+00  0.00000000000E+00 -0.78341311263E+02  0.78341311263E+02  0.00000000000E+00 0. -1.
        6    2    1    2  501    0 -0.18571359534E+03  0.15146541554E+03  0.36018620585E+03  0.46783816896E+03  0.17806498211E+03 0.  0.
       24    2    3    3    0    0 -0.18724255943E+03  0.15541730723E+03  0.37388117259E+03  0.45275184100E+03  0.77348450935E+02 0.  0.
       -6    2    1    2    0  502  0.18571359534E+03 -0.15146541554E+03  0.86172501968E+03  0.91075567909E+03  0.17168164102E+03 0.  0.
      -24    2    5    5    0    0  0.61376912863E+02 -0.25560728884E+01  0.32222008918E+03  0.33741349246E+03  0.79046948610E+02 0.  0.
        5    1    3    3  501    0  0.15289640884E+01 -0.39518916940E+01 -0.13694966739E+02  0.15086327961E+02  0.46999998093E+01 0. -1.
       -5    1    5    5    0  502  0.12433668248E+03 -0.14890934265E+03  0.53950493050E+03  0.57334218663E+03  0.46999998093E+01 0.  1.
       13    1    6    6    0    0  0.44779666075E+02  0.87166989186E+01  0.64997093852E+02  0.79409203138E+02  0.00000000000E+00 0. -1.
      -13    1    4    4    0    0 -0.35647755640E+02  0.73748099540E+02  0.14193031883E+03  0.16387116913E+03  0.00000000000E+00 0.  1.
       14    1    4    4    0    0 -0.15159480379E+03  0.81669207693E+02  0.23195085376E+03  0.28888067187E+03  0.00000000000E+00 0. -1.
      -14    1    6    6    0    0  0.16597246788E+02 -0.11272771807E+02  0.25722299533E+03  0.25800428932E+03  0.00000000000E+00 0.  1.
</event>
<event>
12   0  0.9284400E-04  0.1949765E+03  0.7546771E-02  0.1154501E+00
       21   -1    0    0  501  502  0.00000000000E+00  0.00000000000E+00  0.97147797338E+02  0.97147797338E+02  0.00000000000E+00 0. -1.
       21   -1    0    0  502  503  0.00000000000E+00  0.00000000000E+00 -0.10135093320E+04  0.10135093320E+04  0.00000000000E+00 0. -1.
       -6    2    1    2    0  503  0.30182670822E+02  0.79825538106E+02 -0.89566527530E+03  0.91664177086E+03  0.17530755991E+03 0.  0.
      -24    2    3    3    0    0  0.14767115697E+02  0.60621014452E+02 -0.24087812496E+03  0.26137483646E+03  0.80009742864E+02 0.  0.
        6    2    1    2  501    0 -0.30182670822E+02 -0.79825538106E+02 -0.20696259392E+02  0.19401535850E+03  0.17300437576E+03 0.  0.
       24    2    5    5    0    0 -0.43459223252E+02 -0.92614793047E+02 -0.65437515113E+02  0.14539744156E+03  0.79950882742E+02 0.  0.
        5    1    5    5  501    0  0.13276552430E+02  0.12789254940E+02  0.44741255720E+02  0.48617916944E+02  0.46999998093E+01 0. -1.
       -5    1    3    3    0  503  0.15415555124E+02  0.19204523655E+02 -0.65478715034E+03  0.65526693440E+03  0.46999998093E+01 0.  1.
       13    1    4    4    0    0 -0.17633212987E+02 -0.69780297873E+01 -0.10011744529E+03  0.10189762486E+03  0.00000000000E+00 0. -1.
      -13    1    6    6    0    0 -0.66041632656E+02 -0.55353313450E+02 -0.40778106877E+02  0.95332788453E+02  0.00000000000E+00 0.  1.
       14    1    6    6    0    0  0.22582409404E+02 -0.37261479596E+02 -0.24659408236E+02  0.50064653107E+02  0.00000000000E+00 0. -1.
      -14    1    4    4    0    0  0.32400328685E+02  0.67599044239E+02 -0.14076067967E+03  0.15947721160E+03  0.00000000000E+00 0.  1.
</event>
<event>
12   0  0.9284400E-04  0.2985923E+03  0.7546771E-02  0.1085980E+00
       21   -1    0    0  503  502  0.00000000000E+00  0.00000000000E+00  0.24005448868E+03  0.24005448868E+03  0.00000000000E+00 0.  1.
       21   -1    0    0  501  503  0.00000000000E+00  0.00000000000E+00 -0.38412028547E+03  0.38412028547E+03  0.00000000000E+00 0. -1.
        6    2    1    2  501    0  0.22139816722E+03  0.10273285978E+03 -0.12958099384E+03  0.32549741924E+03  0.17200624128E+03 0.  0.
       24    2    3    3    0    0  0.18328508504E+03  0.12830666104E+02 -0.89556289190E+02  0.21986087991E+03  0.80996476405E+02 0.  0.
       -6    2    1    2    0  502 -0.22139816722E+03 -0.10273285978E+03 -0.14484802955E+02  0.29867735491E+03  0.17154347523E+03 0.  0.
      -24    2    5    5    0    0 -0.15168083357E+03 -0.13759277500E+03 -0.17152708004E+02  0.22054331613E+03  0.80039314672E+02 0.  0.
        5    1    3    3  501    0  0.38113082180E+02  0.89902193678E+02 -0.40024704652E+02  0.10563653933E+03  0.46999998093E+01 0. -1.
       -5    1    5    5    0  502 -0.69717333652E+02  0.34859915220E+02  0.26679050493E+01  0.78134038781E+02  0.46999998093E+01 0.  1.
       13    1    6    6    0    0 -0.14231086736E+03 -0.83547102695E+02 -0.13105712808E+02  0.16554232403E+03  0.00000000000E+00 0. -1.
      -13    1    4    4    0    0  0.35763937660E+02 -0.20759680557E+02  0.46791724555E+01  0.41616321662E+02  0.00000000000E+00 0.  1.
       14    1    4    4    0    0  0.14752114738E+03  0.33590346662E+02 -0.94235461646E+02  0.17824455825E+03  0.00000000000E+00 0. -1.
      -14    1    6    6    0    0 -0.93699662098E+01 -0.54045672307E+02 -0.40469951959E+01  0.55000992100E+02  0.00000000000E+00 0.  1.
</event>
<event>
12   0  0.9284400E-04  0.1903234E+03  0.7546771E-02  0.1159155E+00
       21   -1    0    0  503  502  0.00000000000E+00  0.00000000000E+00  0.26823602780E+03  0.26823602780E+03  0.00000000000E+00 0. -1.
       21   -1    0    0  501  503  0.00000000000E+00  0.00000000000E+00 -0.54885070772E+03  0.54885070772E+03  0.00000000000E+00 0. -1.
        6    2    1    2  501    0  0.70225282107E+02  0.23041711351E+02 -0.49596029997E+03  0.52969023420E+03  0.17068278867E+03 0.  0.
       24    2    3    3    0    0  0.10049384101E+03 -0.25364851280E+02 -0.33362638525E+03  0.35754561235E+03  0.76091472698E+02 0.  0.
       -6    2    1    2    0  502 -0.70225282107E+02 -0.23041711351E+02  0.21534562005E+03  0.28739650132E+03  0.17538672181E+03 0.  0.
      -24    2    5    5    0    0 -0.75074125264E+02  0.24618552138E+02  0.67086678246E+02  0.13151893456E+03  0.80959312972E+02 0.  0.
        5    1    3    3  501    0 -0.30268558899E+02  0.48406562631E+02 -0.16233391473E+03  0.17214462185E+03  0.46999998093E+01 0. -1.
       -5    1    5    5    0  502  0.48488431572E+01 -0.47660263488E+02  0.14825894181E+03  0.15587756676E+03  0.46999998093E+01 0.  1.
       13    1    6    6    0    0 -0.54702845301E+02  0.12266542288E+02  0.84922882346E+02  0.10175836717E+03  0.00000000000E+00 0. -1.
      -13    1    4    4    0    0  0.69454105097E+02  0.19470932559E+01 -0.10983363881E+03  0.12996573433E+03  0.00000000000E+00 0.  1.
       14    1    4    4    0    0  0.31039735908E+02 -0.27311944536E+02 -0.22379274644E+03  0.22757987801E+03  0.00000000000E+00 0. -1.
      -14    1    6    6    0    0 -0.20371279963E+02  0.12352009850E+02 -0.17836204100E+02  0.29760567389E+02  0.00000000000E+00 0.  1.
</event>
<event>
12   0  0.9284400E-04  0.1910417E+03  0.7546771E-02  0.1160212E+00
       21   -1    0    0  503  502  0.00000000000E+00  0.00000000000E+00  0.12655777327E+03  0.12655777327E+03  0.00000000000E+00 0. -1.
       21   -1    0    0  501  503  0.00000000000E+00  0.00000000000E+00 -0.27580030106E+03  0.27580030106E+03  0.00000000000E+00 0. -1.
        6    2    1    2  501    0  0.77303610473E+02 -0.11525013477E+02 -0.10309259334E+03  0.21708296186E+03  0.17432227453E+03 0.  0.
       24    2    3    3    0    0 -0.24093757732E+02  0.35430794062E+01 -0.60775821827E+02  0.10608173280E+03  0.83465986738E+02 0.  0.
       -6    2    1    2    0  502 -0.77303610473E+02  0.11525013477E+02 -0.46149934450E+02  0.18527511247E+03  0.16151896707E+03 0.  0.
      -24    2    5    5    0    0 -0.34399863790E+02  0.39796508047E+02  0.17267011974E+02  0.10352055311E+03  0.87471381215E+02 0.  0.
        5    1    3    3  501    0  0.10139736821E+03 -0.15068092883E+02 -0.42316771511E+02  0.11100122905E+03  0.46999998093E+01 0. -1.
       -5    1    5    5    0  502 -0.42903746683E+02 -0.28271494571E+02 -0.63416946424E+02  0.81754559363E+02  0.46999998093E+01 0.  1.
       13    1    6    6    0    0 -0.23908250773E+02 -0.25504680207E+02  0.12811257375E+02  0.37231995421E+02  0.00000000000E+00 0. -1.
      -13    1    4    4    0    0 -0.50361612338E+02  0.32778078688E+00 -0.13890153093E+02  0.52243045379E+02  0.00000000000E+00 0.  1.
       14    1    4    4    0    0  0.26267854606E+02  0.32152986193E+01 -0.46885668733E+02  0.53838687422E+02  0.00000000000E+00 0. -1.
      -14    1    6    6    0    0 -0.10491613016E+02  0.65301188254E+02  0.44557545987E+01  0.66288557686E+02  0.00000000000E+00 0.  1.
</event>
<event>
12   0  0.9284400E-04  0.1802752E+03  0.7546771E-02  0.1167537E+00
        2   -1    0    0  502    0  0.00000000000E+00  0.00000000000E+00  0.79139581527E+03  0.79139581527E+03  0.00000000000E+00 0.  1.
       -2   -1    0    0    0  501  0.00000000000E+00  0.00000000000E+00 -0.45243479426E+02  0.45243479426E+02  0.00000000000E+00 0. -1.
        6    2    1    2  502    0 -0.33327869616E+02 -0.21148083713E+02  0.24143271280E+03  0.29984637906E+03  0.17337851045E+03 0.  0.
       24    2    3    3    0    0  0.20978575274E+02  0.42037043181E+02  0.15535243061E+03  0.17995703342E+03  0.77736365755E+02 0.  0.
       -6    2    1    2    0  501  0.33327869616E+02  0.21148083713E+02  0.50471962304E+03  0.53679291564E+03  0.17845657190E+03 0.  0.
      -24    2    5    5    0    0 -0.28668265993E+02  0.51721168798E+02  0.19017129153E+03  0.21470445385E+03  0.80224270661E+02 0.  0.
        5    1    3    3  502    0 -0.54306444891E+02 -0.63185126894E+02  0.86080282193E+02  0.11988934564E+03  0.46999998093E+01 0. -1.
       -5    1    5    5    0  501  0.61996135610E+02 -0.30573085085E+02  0.31454833151E+03  0.32208846179E+03  0.46999998093E+01 0.  1.
       13    1    6    6    0    0  0.68419424919E+01  0.58858734362E+02  0.14609890768E+03  0.15765802743E+03  0.00000000000E+00 0. -1.
      -13    1    4    4    0    0 -0.24662171757E+02 -0.34662722081E+01  0.58958199821E+02  0.64002399056E+02  0.00000000000E+00 0.  1.
       14    1    4    4    0    0  0.45640747032E+02  0.45503315390E+02  0.96394230790E+02  0.11595463436E+03  0.00000000000E+00 0. -1.
      -14    1    6    6    0    0 -0.35510208485E+02 -0.71375655649E+01  0.44072383851E+02  0.57046426419E+02  0.00000000000E+00 0.  1.
</event>
<event>
12   0  0.9284400E-04  0.1979587E+03  0.7546771E-02  0.1152024E+00
       21   -1    0    0  501  502  0.00000000000E+00  0.00000000000E+00  0.21242243015E+03  0.21242243015E+03  0.00000000000E+00 0. -1.
       21   -1    0    0  502  503  0.00000000000E+00  0.00000000000E+00 -0.19479242086E+03  0.19479242086E+03  0.00000000000E+00 0.  1.
        6    2    1    2  501    0  0.23535943129E+02 -0.85731719860E+02  0.60840254022E+02  0.20709700000E+03  0.17687216426E+03 0.  0.
       24    2    3    3    0    0  0.29278098079E+02 -0.12783859607E+03  0.36132129252E+02  0.15771539618E+03  0.79804146239E+02 0.  0.
       -6    2    1    2    0  503 -0.23535943129E+02  0.85731719860E+02 -0.43210244732E+02  0.20011785102E+03  0.17400046160E+03 0.  0.
      -24    2    5    5    0    0 -0.83563551793E+02  0.32570621994E+02 -0.15405751704E+01  0.10963101503E+03  0.63030734397E+02 0.  0.
        5    1    3    3  501    0 -0.57421549507E+01  0.42106876207E+02  0.24708124770E+02  0.49381603814E+02  0.46999998093E+01 0. -1.
       -5    1    5    5    0  503  0.60027608665E+02  0.53161097867E+02 -0.41669669561E+02  0.90486835992E+02  0.46999998093E+01 0.  1.
       13    1    6    6    0    0 -0.71276714714E+02 -0.93951799994E+00  0.10307313604E+02  0.72024256110E+02  0.00000000000E+00 0. -1.
      -13    1    4    4    0    0  0.44332810184E+02 -0.29755880168E+02  0.20824422105E+02  0.57310269755E+02  0.00000000000E+00 0.  1.
       14    1    4    4    0    0 -0.15054712104E+02 -0.98082715899E+02  0.15307707147E+02  0.10040512643E+03  0.00000000000E+00 0. -1.
      -14    1    6    6    0    0 -0.12286837079E+02  0.33510139994E+02 -0.11847888774E+02  0.37606758917E+02  0.00000000000E+00 0.  1.
</event>
<event>
12   0  0.9284400E-04  0.2278785E+03  0.7546771E-02  0.1128227E+00
       21   -1    0    0  501  502  0.00000000000E+00  0.00000000000E+00  0.51946019157E+03  0.51946019157E+03  0.00000000000E+00 0.  1.
       21   -1    0    0  502  503  0.00000000000E+00  0.00000000000E+00 -0.14438176890E+03  0.14438176890E+03  0.00000000000E+00 0. -1.
       -6    2    1    2    0  503 -0.14754118459E+03  0.10831550495E+02  0.31463701937E+01  0.22790018824E+03  0.17332879888E+03 0.  0.
      -24    2    3    3    0    0 -0.11702288212E+03 -0.56813378775E+02  0.13715895086E+01  0.15351979374E+03  0.81512765045E+02 0.  0.
        6    2    1    2  501    0  0.14754118459E+03 -0.10831550495E+02  0.37193205248E+03  0.43594177223E+03  0.17270221041E+03 0.  0.
       24    2    5    5    0    0  0.15193971174E+03  0.25371641824E+02  0.35518548303E+03  0.39553687449E+03  0.81014168565E+02 0.  0.
        5    1    5    5  501    0 -0.43985271543E+01 -0.36203192319E+02  0.16746569443E+02  0.40404897742E+02  0.46999998093E+01 0. -1.
       -5    1    3    3    0  503 -0.30518302468E+02  0.67644929270E+02  0.17747806851E+01  0.74380394501E+02  0.46999998093E+01 0.  1.
       13    1    4    4    0    0 -0.98140769101E+02 -0.37895480122E+02 -0.32743559311E+02  0.11018084520E+03  0.00000000000E+00 0. -1.
      -13    1    6    6    0    0 -0.89623405472E+01  0.75055857364E+01  0.32058602185E+02  0.34123471972E+02  0.00000000000E+00 0.  1.
       14    1    6    6    0    0  0.16090205229E+03  0.17866056088E+02  0.32312688085E+03  0.36141340252E+03  0.00000000000E+00 0. -1.
      -14    1    4    4    0    0 -0.18882113021E+02 -0.18917898653E+02  0.34115148820E+02  0.43338948540E+02  0.00000000000E+00 0.  1.
</event>
<event>
12   0  0.9284400E-04  0.2382645E+03  0.7546771E-02  0.1121216E+00
       21   -1    0    0  503  502  0.00000000000E+00  0.00000000000E+00  0.28174493368E+03  0.28174493368E+03  0.00000000000E+00 0.  1.
       21   -1    0    0  501  503  0.00000000000E+00  0.00000000000E+00 -0.24692061919E+03  0.24692061919E+03  0.00000000000E+00 0. -1.
        6    2    1    2  501    0  0.21951392143E+02  0.15917644298E+03 -0.97633655838E+02  0.25605765768E+03  0.17382229341E+03 0.  0.
       24    2    3    3    0    0  0.33343016478E+02  0.15380284833E+03 -0.13047851987E+03  0.22056794486E+03  0.82816068793E+02 0.  0.
       -6    2    1    2    0  502 -0.21951392143E+02 -0.15917644298E+03  0.13245797032E+03  0.27260789519E+03  0.17592881231E+03 0.  0.
      -24    2    5    5    0    0 -0.80338490912E+02 -0.11765493989E+03  0.11600764965E+03  0.19894792255E+03  0.76325245534E+02 0.  0.
        5    1    3    3  501    0 -0.11391624335E+02  0.53735946525E+01  0.32844864030E+02  0.35489712817E+02  0.46999998093E+01 0. -1.
       -5    1    5    5    0  502  0.58387098768E+02 -0.41521503089E+02  0.16450320669E+02  0.73659972642E+02  0.46999998093E+01 0.  1.
       13    1    6    6    0    0 -0.17436584938E+02  0.88895601071E+01  0.82710747739E+01  0.21247810502E+02  0.00000000000E+00 0. -1.
      -13    1    4    4    0    0 -0.27709502310E+02  0.45041675457E+02 -0.44023231027E+02  0.68808530839E+02  0.00000000000E+00 0.  1.
       14    1    4    4    0    0  0.61052518788E+02  0.10876117287E+03 -0.86455288841E+02  0.15175941402E+03  0.00000000000E+00 0. -1.
      -14    1    6    6    0    0 -0.62901905974E+02 -0.12654450000E+03  0.10773657488E+03  0.17770011205E+03  0.00000000000E+00 0.  1.
</event>
<event>
12   0  0.9284400E-04  0.3060786E+03  0.7546771E-02  0.1082266E+00
       21   -1    0    0  501  502  0.00000000000E+00  0.00000000000E+00  0.29553000097E+03  0.29553000097E+03  0.00000000000E+00 0.  1.
       21   -1    0    0  502  503  0.00000000000E+00  0.00000000000E+00 -0.37236998654E+03  0.37236998654E+03  0.00000000000E+00 0. -1.
       -6    2    1    2    0  503 -0.50471832001E+02  0.24701710809E+03 -0.16744818492E+03  0.34888822790E+03  0.17354896547E+03 0.  0.
      -24    2    3    3    0    0  0.14652868601E+02  0.88210193011E+02 -0.19871817199E+02  0.12247767776E+03  0.81302814960E+02 0.  0.
        6    2    1    2  501    0  0.50471832001E+02 -0.24701710809E+03  0.90608199356E+02  0.31901175961E+03  0.17318718043E+03 0.  0.
       24    2    5    5    0    0  0.82266499296E+02 -0.23286970431E+03  0.48584684727E+02  0.26424757714E+03  0.80437766880E+02 0.  0.
        5    1    5    5  501    0 -0.31794667295E+02 -0.14147403783E+02  0.42023514630E+02  0.54764182476E+02  0.46999998093E+01 0. -1.
       -5    1    3    3    0  503 -0.65124700602E+02  0.15880691508E+03 -0.14757636772E+03  0.22641055014E+03  0.46999998093E+01 0.  1.
       13    1    4    4    0    0 -0.23905420802E+02  0.24068589684E+02 -0.32032906645E+02  0.46656974412E+02  0.00000000000E+00 0. -1.
      -13    1    6    6    0    0  0.89138794993E+01 -0.14400644989E+03  0.21440044245E+02  0.14586634415E+03  0.00000000000E+00 0.  1.
       14    1    6    6    0    0  0.73352619797E+02 -0.88863254421E+02  0.27144640482E+02  0.11838123299E+03  0.00000000000E+00 0. -1.
      -14    1    4    4    0    0  0.38558289404E+02  0.64141603327E+02  0.12161089447E+02  0.75820703345E+02  0.00000000000E+00 0.  1.
</event>
<event>
12   0  0.9284400E-04  0.1735987E+03  0.7546771E-02  0.1174478E+00
       21   -1    0    0  503  502  0.00000000000E+00  0.00000000000E+00  0.29589808006E+02  0.29589808006E+02  0.00000000000E+00 0.  1.
       21   -1    0    0  501  503  0.00000000000E+00  0.00000000000E+00 -0.11230611742E+04  0.11230611742E+04  0.00000000000E+00 0.  1.
        6    2    1    2  501    0 -0.42763598194E+01  0.23494020142E+02 -0.72705971356E+03  0.74719565274E+03  0.17063194353E+03 0.  0.
       24    2    3    3    0    0  0.24443768855E+02  0.21524756347E+01 -0.69101898642E+03  0.69619240457E+03  0.81083251033E+02 0.  0.
       -6    2    1    2    0  502  0.42763598194E+01 -0.23494020142E+02 -0.36641165264E+03  0.40545532948E+03  0.17194844801E+03 0.  0.
      -24    2    5    5    0    0  0.63387119458E+02 -0.29256402788E+02 -0.28774627730E+03  0.30677595861E+03  0.80247770460E+02 0.  0.
        5    1    3    3  501    0 -0.28720128675E+02  0.21341544507E+02 -0.36040727143E+02  0.51003248173E+02  0.46999998093E+01 0. -1.
       -5    1    5    5    0  502 -0.59110759638E+02  0.57623826460E+01 -0.78665375346E+02  0.98679370870E+02  0.46999998093E+01 0.  1.
       13    1    6    6    0    0  0.25210147516E+02 -0.28527291936E+02 -0.36826366206E+02  0.52967340607E+02  0.00000000000E+00 0. -1.
      -13    1    4    4    0    0  0.44314761018E+02  0.15793083909E+02 -0.24219845358E+03  0.24672517193E+03  0.00000000000E+00 0.  1.
       14    1    4    4    0    0 -0.19870992163E+02 -0.13640608274E+02 -0.44882053283E+03  0.44946723264E+03  0.00000000000E+00 0. -1.
      -14    1    6    6    0    0  0.38176971941E+02 -0.72911085116E+00 -0.25091991109E+03  0.25380861800E+03  0.00000000000E+00 0.  1.
</event>
<event>
12   0  0.9284400E-04  0.2415693E+03  0.7546771E-02  0.1118763E+00
       21   -1    0    0  501  502  0.00000000000E+00  0.00000000000E+00  0.41927506905E+03  0.41927506905E+03  0.00000000000E+00 0.  1.
       21   -1    0    0  502  503  0.00000000000E+00  0.00000000000E+00 -0.15731351821E+03  0.15731351821E+03  0.00000000000E+00 0. -1.
       -6    2    1    2    0  503 -0.12710402625E+03 -0.11060392468E+03  0.22894188435E+03  0.33277303324E+03  0.17301688818E+03 0.  0.
      -24    2    3    3    0    0 -0.88335811135E+02  0.49947710724E+01  0.82396434690E+02  0.14208037009E+03  0.74629054996E+02 0.  0.
        6    2    1    2  501    0  0.12710402625E+03  0.11060392468E+03  0.33019666494E+02  0.24381555403E+03  0.17310997766E+03 0.  0.
       24    2    5    5    0    0  0.21360809973E+02  0.74774870808E+02 -0.30890491044E+02  0.11508347906E+03  0.79008981821E+02 0.  0.
        5    1    5    5  501    0  0.10574321628E+03  0.35829053868E+02  0.63910157538E+02  0.12873207497E+03  0.46999998093E+01 0. -1.
       -5    1    3    3    0  503 -0.38768215117E+02 -0.11559869575E+03  0.14654544966E+03  0.19069266314E+03  0.46999998093E+01 0.  1.
       13    1    4    4    0    0 -0.33816833195E+02 -0.24452692557E+02  0.36679530201E+01  0.41892317434E+02  0.00000000000E+00 0. -1.
      -13    1    6    6    0    0 -0.14872138115E+02  0.26008489388E+02  0.19840430357E+02  0.35934171608E+02  0.00000000000E+00 0.  1.
       14    1    6    6    0    0  0.36232948088E+02  0.48766381420E+02 -0.50730921401E+02  0.79149307452E+02  0.00000000000E+00 0. -1.
      -14    1    4    4    0    0 -0.54518977940E+02  0.29447463629E+02  0.78728481670E+02  0.10018805266E+03  0.00000000000E+00 0.  1.
</event>
<event>
12   0  0.9284400E-04  0.2026603E+03  0.7546771E-02  0.1150073E+00
       21   -1    0    0  503  502  0.00000000000E+00  0.00000000000E+00  0.83126103535E+03  0.83126103535E+03  0.00000000000E+00 0. -1.
       21   -1    0    0  501  503  0.00000000000E+00  0.00000000000E+00 -0.46717252909E+02  0.46717252909E+02  0.00000000000E+00 0.  1.
        6    2    1    2  501    0  0.24066510644E+02 -0.78532015491E+02  0.37695305194E+03  0.42797755621E+03  0.18526929282E+03 0.  0.
       24    2    3    3    0    0  0.27831089930E+02 -0.13254593723E+02  0.62295258282E+02  0.10656360045E+03  0.80776530718E+02 0.  0.
       -6    2    1    2    0  502 -0.24066510644E+02  0.78532015491E+02  0.40759073050E+03  0.45000073205E+03  0.17211618420E+03 0.  0.
      -24    2    5    5    0    0  0.15005477362E+02  0.93004513750E+01  0.32540192827E+03  0.33555983496E+03  0.80014530985E+02 0.  0.
        5    1    3    3  501    0 -0.37645792861E+01 -0.65277421768E+02  0.31465779366E+03  0.32141395576E+03  0.46999998093E+01 0. -1.
       -5    1    5    5    0  502 -0.39071988006E+02  0.69231564116E+02  0.82188802232E+02  0.11444089709E+03  0.46999998093E+01 0.  1.
       13    1    6    6    0    0  0.45627258504E+01  0.43821335101E+02  0.21316897713E+03  0.21767439144E+03  0.00000000000E+00 0. -1.
      -13    1    4    4    0    0  0.37304164541E+02  0.16281825682E+02  0.63609582012E+02  0.75517398415E+02  0.00000000000E+00 0.  1.
       14    1    4    4    0    0 -0.94730746107E+01 -0.29536419405E+02 -0.13143237302E+01  0.31046202034E+02  0.00000000000E+00 0. -1.
      -14    1    6    6    0    0  0.10442751512E+02 -0.34520883726E+02  0.11223295114E+03  0.11788544352E+03  0.00000000000E+00 0.  1.
</event>
<event>
12   0  0.9284400E-04  0.1805861E+03  0.7546771E-02  0.1167313E+00
       21   -1    0    0  501  502  0.00000000000E+00  0.00000000000E+00  0.25481171105E+02  0.25481171105E+02  0.00000000000E+00 0.  1.
       21   -1    0    0  502  503  0.00000000000E+00  0.00000000000E+00 -0.12931442277E+04  0.12931442277E+04  0.00000000000E+00 0.  1.
       -6    2    1    2    0  503 -0.49873409583E+02 -0.29511422601E+01 -0.70667769251E+03  0.72938653063E+03  0.17353755718E+03 0.  0.
      -24    2    3    3    0    0 -0.45336185417E+02 -0.22777971407E+02 -0.17579840467E+03  0.19809696946E+03  0.75915245732E+02 0.  0.
        6    2    1    2  501    0  0.49873409583E+02  0.29511422601E+01 -0.56098536410E+03  0.58923886819E+03  0.17321027344E+03 0.  0.
       24    2    5    5    0    0 -0.14083010026E+02 -0.47935766317E+02 -0.22084758286E+03  0.23938789806E+03  0.77696473661E+02 0.  0.
        5    1    5    5  501    0  0.63956419609E+02  0.50886908577E+02 -0.34013778124E+03  0.34985097013E+03  0.46999998093E+01 0. -1.
       -5    1    3    3    0  503 -0.45372241658E+01  0.19826829146E+02 -0.53087928783E+03  0.53128956117E+03  0.46999998093E+01 0.  1.
       13    1    4    4    0    0 -0.55663144812E+01  0.23695767950E+02 -0.22910043100E+02  0.33426686203E+02  0.00000000000E+00 0. -1.
      -13    1    6    6    0    0  0.54567322189E+01 -0.47568337832E+02 -0.21302115567E+03  0.21833583182E+03  0.00000000000E+00 0.  1.
       14    1    6    6    0    0 -0.19539742245E+02 -0.36742848494E+00 -0.78264271873E+01  0.21052066245E+02  0.00000000000E+00 0. -1.
      -14    1    4    4    0    0 -0.39769870936E+02 -0.46473739357E+02 -0.15288836157E+03  0.16467028326E+03  0.00000000000E+00 0.  1.
</event>
<event>
12   0  0.9284400E-04  0.2087899E+03  0.7546771E-02  0.1142914E+00
       21   -1    0    0  503  502  0.00000000000E+00  0.00000000000E+00  0.22993320393E+03  0.22993320393E+03  0.00000000000E+00 0.  1.
       21   -1    0    0  501  503  0.00000000000E+00  0.00000000000E+00 -0.54761227210E+03  0.54761227210E+03  0.00000000000E+00 0.  1.
        6    2    1    2  501    0 -0.11512142349E+03  0.23262945845E+01 -0.47370070317E+03  0.51690018273E+03  0.17185775783E+03 0.  0.
       24    2    3    3    0    0 -0.22688426287E+02 -0.12352493866E+02 -0.95936969499E+02  0.12768706080E+03  0.80204330228E+02 0.  0.
       -6    2    1    2    0  502  0.11512142349E+03 -0.23262945845E+01  0.15602163501E+03  0.26064529330E+03  0.17416906882E+03 0.  0.
      -24    2    5    5    0    0 -0.86913731024E+00  0.20862901611E+02  0.43868558840E+02  0.97574905100E+02  0.84619120696E+02 0.  0.
        5    1    3    3  501    0 -0.92432997200E+02  0.14678788451E+02 -0.37776373368E+03  0.38921312193E+03  0.46999998093E+01 0. -1.
       -5    1    5    5    0  502  0.11599056080E+03 -0.23189196196E+02  0.11215307617E+03  0.16307038820E+03  0.46999998093E+01 0.  1.
       13    1    6    6    0    0 -0.18763865610E+02  0.49103850087E+02  0.34416893974E+02  0.62831467728E+02  0.00000000000E+00 0. -1.
      -13    1    4    4    0    0 -0.27015315170E+01  0.22495034864E+02 -0.82146210424E+02  0.85213407121E+02  0.00000000000E+00 0.  1.
       14    1    4    4    0    0 -0.19986894770E+02 -0.34847528730E+02 -0.13790759075E+02  0.42473653681E+02  0.00000000000E+00 0. -1.
      -14    1    6    6    0    0  0.17894728299E+02 -0.28240948476E+02  0.94516648661E+01  0.34743437373E+02  0.00000000000E+00 0.  1.
</event>
<event>
12   0  0.9284400E-04  0.2012957E+03  0.7546771E-02  0.1148987E+00
       21   -1    0    0  503  502  0.00000000000E+00  0.00000000000E+00  0.53003184479E+03  0.53003184479E+03  0.00000000000E+00 0.  1.
       21   -1    0    0  501  503  0.00000000000E+00  0.00000000000E+00 -0.94130899546E+02  0.94130899546E+02  0.00000000000E+00 0.  1.
        6    2    1    2  501    0 -0.98060625618E+02  0.26647721599E+02  0.79682377751E+02  0.21500306407E+03  0.17190418515E+03 0.  0.
       24    2    3    3    0    0 -0.22969050292E+02 -0.19313185769E+02  0.14159666317E+02  0.10515559982E+03  0.99782902379E+02 0.  0.
       -6    2    1    2    0  502  0.98060625618E+02 -0.26647721599E+02  0.35621856749E+03  0.40915968026E+03  0.17376417572E+03 0.  0.
      -24    2    5    5    0    0  0.12959818961E+03 -0.48475083649E+02  0.25537421104E+03  0.30116557902E+03  0.79619054495E+02 0.  0.
        5    1    3    3  501    0 -0.75091575326E+02  0.45960907368E+02  0.65522711434E+02  0.10984746425E+03  0.46999998093E+01 0. -1.
       -5    1    5    5    0  502 -0.31537563989E+02  0.21827362050E+02  0.10084435646E+03  0.10799410124E+03  0.46999998093E+01 0.  1.
       13    1    6    6    0    0  0.48182093013E+02  0.35986053592E+01  0.32473603863E+02  0.58215109684E+02  0.00000000000E+00 0. -1.
      -13    1    4    4    0    0 -0.39230902440E+02  0.77781473393E+01 -0.30606189760E+02  0.50361712977E+02  0.00000000000E+00 0.  1.
       14    1    4    4    0    0  0.16261852148E+02 -0.27091333109E+02  0.44765856078E+02  0.54793886842E+02  0.00000000000E+00 0. -1.
      -14    1    6    6    0    0  0.81416096594E+02 -0.52073689008E+02  0.22290060717E+03  0.24295046933E+03  0.00000000000E+00 0.  1.
</event>
<event>
12   0  0.9284400E-04  0.2050767E+03  0.7546771E-02  0.1145617E+00
       21   -1    0    0  501  502  0.00000000000E+00  0.00000000000E+00  0.35671065581E+03  0.35671065581E+03  0.00000000000E+00 0. -1.
       21   -1    0    0  502  503  0.00000000000E+00  0.00000000000E+00 -0.13987470374E+03  0.13987470374E+03  0.00000000000E+00 0. -1.
       -6    2    1    2    0  503  0.28988421782E+02  0.10567441804E+03  0.95277157702E+01  0.20529791976E+03  0.17334661020E+03 0.  0.
      -24    2    3    3    0    0  0.58431796699E+02  0.13648954315E+02  0.35311809079E+02  0.10518544419E+03  0.78844689036E+02 0.  0.
        6    2    1    2  501    0 -0.28988421782E+02 -0.10567441804E+03  0.20730823630E+03  0.29128743979E+03  0.17281277880E+03 0.  0.
       24    2    5    5    0    0 -0.98751002888E+01  0.11903948697E+02  0.11008897393E+03  0.13745744806E+03  0.80843962333E+02 0.  0.
        5    1    5    5  501    0 -0.19113321494E+02 -0.11757836674E+03  0.97219262374E+02  0.15382999174E+03  0.46999998093E+01 0. -1.
       -5    1    3    3    0  503 -0.29443374917E+02  0.92025463724E+02 -0.25784093309E+02  0.10011247558E+03  0.46999998093E+01 0.  1.
       13    1    4    4    0    0  0.61017633937E+02  0.32760860405E+02  0.52316373878E+01  0.69453550345E+02  0.00000000000E+00 0. -1.
      -13    1    6    6    0    0  0.16002647879E+02  0.26256438695E+02  0.88713453749E+01  0.32002907382E+02  0.00000000000E+00 0.  1.
       14    1    6    6    0    0 -0.25877748168E+02 -0.14352489999E+02  0.10121762855E+03  0.10545454067E+03  0.00000000000E+00 0. -1.
      -14    1    4    4    0    0 -0.25858372380E+01 -0.19111906090E+02  0.30080171691E+02  0.35731893843E+02  0.00000000000E+00 0.  1.
</event>
<event>
12   0  0.9284400E-04  0.1740844E+03  0.7546771E-02  0.1173661E+00
       21   -1    0    0  503  502  0.00000000000E+00  0.00000000000E+00  0.25244278168E+03  0.25244278168E+03  0.00000000000E+00 0.  1.
       21   -1    0    0  501  503  0.00000000000E+00  0.00000000000E+00 -0.47945170400E+03  0.47945170400E+03  0.00000000000E+00 0.  1.
        6    2    1    2  501    0 -0.12328074387E+02 -0.57669735653E+01 -0.43035202402E+03  0.46422864033E+03  0.17355150971E+03 0.  0.
       24    2    3    3    0    0 -0.10330429649E+02  0.14138719553E+02 -0.43575093550E+03  0.44298092407E+03  0.77759887649E+02 0.  0.
       -6    2    1    2    0  502  0.12328074387E+02  0.57669735653E+01  0.20334310169E+03  0.26766584534E+03  0.17352621806E+03 0.  0.
      -24    2    5    5    0    0 -0.51182013679E+02  0.37309704267E+02  0.12241508175E+03  0.15996296907E+03  0.81185507812E+02 0.  0.
        5    1    3    3  501    0 -0.19976447385E+01 -0.19905693118E+02  0.53989114844E+01  0.21247716264E+02  0.46999998093E+01 0. -1.
       -5    1    5    5    0  502  0.63510088067E+02 -0.31542730702E+02  0.80928019946E+02  0.10770287627E+03  0.46999998093E+01 0.  1.
       13    1    6    6    0    0 -0.34047944482E+02 -0.12771352279E+02  0.13359378112E+02  0.38740714320E+02  0.00000000000E+00 0. -1.
      -13    1    4    4    0    0  0.15362133201E+02 -0.26934196928E+02 -0.15314680439E+03  0.15625424729E+03  0.00000000000E+00 0.  1.
       14    1    4    4    0    0 -0.25692562850E+02  0.41072916481E+02 -0.28260413111E+03  0.28672667678E+03  0.00000000000E+00 0. -1.
      -14    1    6    6    0    0 -0.17134069198E+02  0.50081056546E+02  0.10905570364E+03  0.12122225475E+03  0.00000000000E+00 0.  1.
</event>
<event>
12   0  0.9284400E-04  0.1743269E+03  0.7546771E-02  0.1173409E+00
        2   -1    0    0  502    0  0.00000000000E+00  0.00000000000E+00  0.22663270028E+03  0.22663270028E+03  0.00000000000E+00 0. -1.
       -2   -1    0    0    0  501  0.00000000000E+00  0.00000000000E+00 -0.14649448500E+03  0.14649448500E+03  0.00000000000E+00 0.  1.
        6    2    1    2  502    0 -0.63391627979E+01 -0.96552746956E+01 -0.14258193480E+02  0.17469039376E+03  0.17372400028E+03 0.  0.
       24    2    3    3    0    0  0.33262496504E+02  0.19992815708E+02 -0.59116782674E+02  0.10774501522E+03  0.81290146747E+02 0.  0.
       -6    2    1    2    0  501  0.63391627979E+01  0.96552746956E+01  0.94396408757E+02  0.19843679152E+03  0.17416391397E+03 0.  0.
      -24    2    5    5    0    0 -0.26312494196E+02  0.38030471475E+01  0.12573222050E+03  0.15256302595E+03  0.82219675852E+02 0.  0.
        5    1    3    3  502    0 -0.39601659302E+02 -0.29648090403E+02  0.44858589194E+02  0.66945378532E+02  0.46999998093E+01 0. -1.
       -5    1    5    5    0  501  0.32651656994E+02  0.58522275481E+01 -0.31335811744E+02  0.45873765570E+02  0.46999998093E+01 0.  1.
       13    1    6    6    0    0  0.17003804120E+02  0.12647058136E+02  0.98245493163E+02  0.10050499670E+03  0.00000000000E+00 0. -1.
      -13    1    4    4    0    0  0.28115363489E+02 -0.22771095693E+02 -0.20370102468E+01  0.36237354676E+02  0.00000000000E+00 0.  1.
       14    1    4    4    0    0  0.51471330151E+01  0.42763911401E+02 -0.57079772427E+02  0.71507660547E+02  0.00000000000E+00 0. -1.
      -14    1    6    6    0    0 -0.43316298317E+02 -0.88440109888E+01  0.27486727337E+02  0.52058029255E+02  0.00000000000E+00 0.  1.
</event>
<event>
12   0  0.9284400E-04  0.1921735E+03  0.7546771E-02  0.1156729E+00
       21   -1    0    0  503  502  0.00000000000E+00  0.00000000000E+00  0.80877029952E+02  0.80877029952E+02  0.00000000000E+00 0. -1.
       21   -1    0    0  501  503  0.00000000000E+00  0.00000000000E+00 -0.45778519513E+03  0.45778519513E+03  0.00000000000E+00 0. -1.
        6    2    1    2  501    0 -0.80056711709E+02  0.15415039096E+02 -0.16561295136E+03  0.25368940063E+03  0.17402287727E+03 0.  0.
       24    2    3    3    0    0 -0.59495387359E+02  0.39666952450E+02 -0.18630759668E+03  0.21546268610E+03  0.81243339945E+02 0.  0.
       -6    2    1    2    0  502  0.80056711709E+02 -0.15415039096E+02 -0.21129521381E+03  0.28497282445E+03  0.17296572717E+03 0.  0.
      -24    2    5    5    0    0  0.30247741501E+02  0.46058291828E+02 -0.65474547402E+02  0.11900396991E+03  0.82696652798E+02 0.  0.
        5    1    3    3  501    0 -0.20561324350E+02 -0.24251913353E+02  0.20694645323E+02  0.38226714527E+02  0.46999998093E+01 0. -1.
       -5    1    5    5    0  502  0.49808970208E+02 -0.61473330925E+02 -0.14582066641E+03  0.16596885455E+03  0.46999998093E+01 0.  1.
       13    1    6    6    0    0  0.42184597707E+01  0.61910940400E+02 -0.62996129929E+02  0.88426649434E+02  0.00000000000E+00 0. -1.
      -13    1    4    4    0    0 -0.31642558194E+02  0.59859224346E+02 -0.15417832672E+03  0.16839042330E+03  0.00000000000E+00 0.  1.
       14    1    4    4    0    0 -0.27852829165E+02 -0.20192271897E+02 -0.32129269967E+02  0.47072262804E+02  0.00000000000E+00 0. -1.
      -14    1    6    6    0    0  0.26029281730E+02 -0.15852648572E+02 -0.24784174732E+01  0.30577320473E+02  0.00000000000E+00 0.  1.
</event>
<event>
12   0  0.9284400E-04  0.1807232E+03  0.7546771E-02  0.1167795E+00
       21   -1    0    0  503  502  0.00000000000E+00  0.00000000000E+00  0.83013897636E+03  0.83013897636E+03  0.00000000000E+00 0.  1.
       21   -1    0    0  501  503  0.00000000000E+00  0.00000000000E+00 -0.37481702640E+03  0.37481702640E+03  0.00000000000E+00 0.  1.
        6    2    1    2  501    0  0.41929187778E+02  0.20837137265E+02 -0.34302822455E+03  0.38640615007E+03  0.17160742086E+03 0.  0.
       24    2    3    3    0    0  0.25017719722E+02  0.71686121377E+02 -0.14780118760E+03  0.18390355035E+03  0.78806969726E+02 0.  0.
       -6    2    1    2    0  502 -0.41929187778E+02 -0.20837137265E+02  0.79835017451E+03  0.81854985269E+03  0.17455261991E+03 0.  0.
      -24    2    5    5    0    0 -0.59005872195E+02 -0.64603445004E+02  0.39647013182E+03  0.41390585909E+03  0.80462393105E+02 0.  0.
        5    1    3    3  501    0  0.16911468056E+02 -0.50848984112E+02 -0.19522703695E+03  0.20250259972E+03  0.46999998093E+01 0. -1.
       -5    1    5    5    0  502  0.17076684417E+02  0.43766307739E+02  0.40188004269E+03  0.40464399360E+03  0.46999998093E+01 0.  1.
       13    1    6    6    0    0 -0.39414404962E+02 -0.77427578862E+02  0.23121002213E+03  0.24699514089E+03  0.00000000000E+00 0. -1.
      -13    1    4    4    0    0  0.62765535871E+01  0.54480354840E+02 -0.14865457930E+03  0.15844774576E+03  0.00000000000E+00 0.  1.
       14    1    4    4    0    0  0.18741166135E+02  0.17205766537E+02  0.85339169775E+00  0.25455804596E+02  0.00000000000E+00 0. -1.
      -14    1    6    6    0    0 -0.19591467234E+02  0.12824133857E+02  0.16526010969E+03  0.16691071821E+03  0.00000000000E+00 0.  1.
</event>
<event>
12   0  0.9284400E-04  0.1753304E+03  0.7546771E-02  0.1174878E+00
       21   -1    0    0  501  502  0.00000000000E+00  0.00000000000E+00  0.45881874375E+03  0.45881874375E+03  0.00000000000E+00 0. -1.
       21   -1    0    0  502  503  0.00000000000E+00  0.00000000000E+00 -0.41415184516E+03  0.41415184516E+03  0.00000000000E+00 0. -1.
       -6    2    1    2    0  503 -0.49523952328E+01 -0.24242369063E+02 -0.37943759129E+03  0.41405298267E+03  0.16387424477E+03 0.  0.
      -24    2    3    3    0    0 -0.25192677486E+01 -0.24439614194E+02 -0.39231229915E+03  0.40013152025E+03  0.74784035618E+02 0.  0.
        6    2    1    2  501    0  0.49523952328E+01  0.24242369063E+02  0.42410448988E+03  0.45891760624E+03  0.17357572498E+03 0.  0.
       24    2    5    5    0    0  0.71517761296E+01  0.44545275916E+02  0.14026404316E+03  0.17430465064E+03  0.93127224390E+02 0.  0.
        5    1    5    5  501    0 -0.21993808969E+01 -0.20302906854E+02  0.28384044671E+03  0.28461295559E+03  0.46999998093E+01 0. -1.
       -5    1    3    3    0  503 -0.24331274841E+01  0.19724513131E+00  0.12874707863E+02  0.13921462414E+02  0.46999998093E+01 0.  1.
       13    1    4    4    0    0 -0.34539358610E+02  0.49553571319E+01 -0.15597257028E+03  0.15982792477E+03  0.00000000000E+00 0. -1.
      -13    1    6    6    0    0 -0.28283297642E+02  0.29924245438E+01  0.10619735927E+03  0.10993988651E+03  0.00000000000E+00 0.  1.
       14    1    6    6    0    0  0.35435073772E+02  0.41552851372E+02  0.34066683897E+02  0.64364764135E+02  0.00000000000E+00 0. -1.
      -14    1    4    4    0    0  0.32020090862E+02 -0.29394971326E+02 -0.23633972888E+03  0.24030359549E+03  0.00000000000E+00 0.  1.
</event>
<event>
12   0  0.9284400E-04  0.3469448E+03  0.7546771E-02  0.1063905E+00
       21   -1    0    0  503  502  0.00000000000E+00  0.00000000000E+00  0.78325628286E+03  0.78325628286E+03  0.00000000000E+00 0. -1.
       21   -1    0    0  501  503  0.00000000000E+00  0.00000000000E+00 -0.17544939063E+03  0.17544939063E+03  0.00000000000E+00 0. -1.
        6    2    1    2  501    0 -0.85581123344E+02 -0.28821592545E+03  0.13468347578E+03  0.37216974539E+03  0.17314194288E+03 0.  0.
       24    2    3    3    0    0 -0.42134666529E+02 -0.55232334206E+02  0.53036775061E+02  0.12145631908E+03  0.84337400187E+02 0.  0.
       -6    2    1    2    0  502  0.85581123344E+02  0.28821592545E+03  0.47312341645E+03  0.58653592810E+03  0.17258644041E+03 0.  0.
      -24    2    5    5    0    0 -0.14646515096E+02  0.12798108374E+03  0.26239199304E+03  0.30342710307E+03  0.81392694179E+02 0.  0.
        5    1    3    3  501    0 -0.43446456815E+02 -0.23298359124E+03  0.81646700722E+02  0.25071342631E+03  0.46999998093E+01 0. -1.
       -5    1    5    5    0  502  0.10022763844E+03  0.16023484170E+03  0.21073142341E+03  0.28310882503E+03  0.46999998093E+01 0.  1.
       13    1    6    6    0    0  0.15500823287E+02  0.11877036572E+03  0.22131471235E+03  0.25164832048E+03  0.00000000000E+00 0. -1.
      -13    1    4    4    0    0  0.18443288768E+02 -0.38753323709E+02  0.67218001392E+01  0.43441427188E+02  0.00000000000E+00 0.  1.
       14    1    4    4    0    0 -0.60577955297E+02 -0.16479010498E+02  0.46314974922E+02  0.78014891892E+02  0.00000000000E+00 0. -1.
      -14    1    6    6    0    0 -0.30147338383E+02  0.92107180228E+01  0.41077280688E+02  0.51778782593E+02  0.00000000000E+00 0.  1.
</event>
<event>
12   0  0.9284400E-04  0.1892581E+03  0.7546771E-02  0.1159268E+00
       21   -1    0    0  503  502  0.00000000000E+00  0.00000000000E+00  0.23139187891E+03  0.23139187891E+03  0.00000000000E+00 0. -1.
       21   -1    0    0  501  503  0.00000000000E+00  0.00000000000E+00 -0.75497578436E+03  0.75497578436E+03  0.00000000000E+00 0. -1.
        6    2    1    2  501    0  0.77311079673E+02  0.74043873574E+01 -0.70178265232E+03  0.72685454489E+03  0.17258855795E+03 0.  0.
       24    2    3    3    0    0  0.21400698746E+02 -0.54818167207E+02 -0.30885548130E+03  0.32509408302E+03  0.82652484094E+02 0.  0.
       -6    2    1    2    0  502 -0.77311079673E+02 -0.74043873574E+01  0.17819874688E+03  0.25951311838E+03  0.17193148992E+03 0.  0.
      -24    2    5    5    0    0 -0.36629551994E+02 -0.16874569419E+02  0.19608790530E+02  0.95447475123E+02  0.84256991811E+02 0.  0.
        5    1    3    3  501    0  0.55910380927E+02  0.62222554564E+02 -0.39292717103E+03  0.40176046187E+03  0.46999998093E+01 0. -1.
       -5    1    5    5    0  502 -0.40681527678E+02  0.94701820619E+01  0.15858995635E+03  0.16406564325E+03  0.46999998093E+01 0.  1.
       13    1    6    6    0    0 -0.53910606672E+02 -0.36470273480E+02  0.44467269772E+01  0.65239617874E+02  0.00000000000E+00 0. -1.
      -13    1    4    4    0    0  0.51206624512E+02 -0.26970702933E+02 -0.21706845202E+03  0.22465139678E+03  0.00000000000E+00 0.  1.
       14    1    4    4    0    0 -0.29805925766E+02 -0.27847464274E+02 -0.91787029274E+02  0.10044268625E+03  0.00000000000E+00 0. -1.
      -14    1    6    6    0    0  0.17281054678E+02  0.19595704061E+02  0.15162063553E+02  0.30207857250E+02  0.00000000000E+00 0.  1.
</event>
<event>
12   0  0.9284400E-04  0.1942177E+03  0.7546771E-02  0.1154760E+00
       21   -1    0    0  503  502  0.00000000000E+00  0.00000000000E+00  0.41425267508E+03  0.41425267508E+03  0.00000000000E+00 0.  1.
       21   -1    0    0  501  503  0.00000000000E+00  0.00000000000E+00 -0.15105136468E+03  0.15105136468E+03  0.00000000000E+00 0.  1.
        6    2    1    2  501    0  0.37534039457E+02  0.80010461427E+02 -0.46732260672E+02  0.19954547328E+03  0.17269630471E+03 0.  0.
       24    2    3    3    0    0 -0.87063798245E+01  0.11106782678E+03 -0.28666083118E+02  0.14079844708E+03  0.81182480768E+02 0.  0.
       -6    2    1    2    0  502 -0.37534039457E+02 -0.80010461427E+02  0.30993357107E+03  0.36575856648E+03  0.17294517174E+03 0.  0.
      -24    2    5    5    0    0 -0.51964774776E+02 -0.11245797128E+03  0.19259713560E+03  0.24307598376E+03  0.81517753390E+02 0.  0.
        5    1    3    3  501    0  0.46240419282E+02 -0.31057365348E+02 -0.18066177554E+02  0.58747026200E+02  0.46999998093E+01 0. -1.
       -5    1    5    5    0  502  0.14430735319E+02  0.32447509855E+02  0.11733643547E+03  0.12268258273E+03  0.46999998093E+01 0.  1.
       13    1    6    6    0    0 -0.51285025738E+01  0.13204192510E+02  0.17088130736E+02  0.22195865618E+02  0.00000000000E+00 0. -1.
      -13    1    4    4    0    0  0.14908092590E+02  0.10882704293E+03 -0.36608946534E+02  0.11578338164E+03  0.00000000000E+00 0.  1.
       14    1    4    4    0    0 -0.23614472414E+02  0.22407838468E+01  0.79428634161E+01  0.25015065439E+02  0.00000000000E+00 0. -1.
      -14    1    6    6    0    0 -0.46836272202E+02 -0.12566216379E+03  0.17550900486E+03  0.22088011814E+03  0.00000000000E+00 0.  1.
</event>
<event>
12   0  0.9284400E-04  0.3161632E+03  0.7546771E-02  0.1077457E+00
       21   -1    0    0  503  502  0.00000000000E+00  0.00000000000E+00  0.37410604654E+03  0.37410604654E+03  0.00000000000E+00 0.  1.
       21   -1    0    0  501  503  0.00000000000E+00  0.00000000000E+00 -0.26735936496E+03  0.26735936496E+03  0.00000000000E+00 0.  1.
        6    2    1    2  501    0 -0.16038029067E+03 -0.21081538196E+03  0.41404254804E+02  0.31862057754E+03  0.17216212479E+03 0.  0.
       24    2    3    3    0    0 -0.18260544937E+03 -0.18332734903E+03  0.99073787576E+01  0.27104229644E+03  0.80075609677E+02 0.  0.
       -6    2    1    2    0  502  0.16038029067E+03  0.21081538196E+03  0.65342426773E+02  0.32284483395E+03  0.17260993937E+03 0.  0.
      -24    2    5    5    0    0  0.88968231757E+02  0.13873309943E+03 -0.27220443579E+02  0.18542026345E+03  0.80482932408E+02 0.  0.
        5    1    3    3  501    0  0.22225158701E+02 -0.27488032926E+02  0.31496876046E+02  0.47578281098E+02  0.46999998093E+01 0. -1.
       -5    1    5    5    0  502  0.71412058910E+02  0.72082282527E+02  0.92562870352E+02  0.13742457050E+03  0.46999998093E+01 0.  1.
       13    1    6    6    0    0  0.18731407826E+02  0.10284332946E+03 -0.15215605137E+02  0.10563678665E+03  0.00000000000E+00 0. -1.
      -13    1    4    4    0    0 -0.16115311206E+03 -0.13204084129E+03  0.32829522861E+02  0.21090966518E+03  0.00000000000E+00 0.  1.
       14    1    4    4    0    0 -0.21452337310E+02 -0.51286507743E+02 -0.22922144104E+02  0.60132631265E+02  0.00000000000E+00 0. -1.
      -14    1    6    6    0    0  0.70236823931E+02  0.35889769972E+02 -0.12004838443E+02  0.79783476802E+02  0.00000000000E+00 0.  1.
</event>
<event>
12   0  0.9284400E-04  0.1870970E+03  0.7546771E-02  0.1163034E+00
       21   -1    0    0  503  502  0.00000000000E+00  0.00000000000E+00  0.11540120252E+03  0.11540120252E+03  0.00000000000E+00 0.  1.
       21   -1    0    0  501  503  0.00000000000E+00  0.00000000000E+00 -0.29828873609E+03  0.29828873609E+03  0.00000000000E+00 0. -1.
        6    2    1    2  501    0  0.11564986125E+02  0.70524759392E+02 -0.59415985102E+02  0.19630468227E+03  0.17290974063E+03 0.  0.
       24    2    3    3    0    0  0.27063287660E+02  0.11061821567E+03 -0.27683382584E+02  0.14266951985E+03  0.81359763058E+02 0.  0.
       -6    2    1    2    0  502 -0.11564986125E+02 -0.70524759392E+02 -0.12347154847E+03  0.21738525634E+03  0.16402327823E+03 0.  0.
      -24    2    5    5    0    0  0.50017235591E+01 -0.98700578254E+02 -0.42470004859E+02  0.12991141623E+03  0.72845407321E+02 0.  0.
        5    1    3    3  501    0 -0.15498301535E+02 -0.40093456281E+02 -0.31732602518E+02  0.53635162419E+02  0.46999998093E+01 0. -1.
       -5    1    5    5    0  502 -0.16566709684E+02  0.28175818863E+02 -0.81001543606E+02  0.87473840108E+02  0.46999998093E+01 0.  1.
       13    1    6    6    0    0  0.66174233639E+01 -0.26721677669E+02 -0.50451421003E+02  0.57473334954E+02  0.00000000000E+00 0. -1.
      -13    1    4    4    0    0 -0.26514896916E+02  0.58967349640E+02 -0.49014543028E+01  0.64839897720E+02  0.00000000000E+00 0.  1.
       14    1    4    4    0    0  0.53578184577E+02  0.51650866033E+02 -0.22781928281E+02  0.77829622129E+02  0.00000000000E+00 0. -1.
      -14    1    6    6    0    0 -0.16156998048E+01 -0.71978900585E+02  0.79814161442E+01  0.72438081276E+02  0.00000000000E+00 0.  1.
</event>
<event>
12   0  0.9284400E-04  0.1886007E+03  0.7546771E-02  0.1159906E+00
       21   -1    0    0  501  502  0.00000000000E+00  0.00000000000E+00  0.13533861601E+03  0.13533861601E+03  0.00000000000E+00 0. -1.
       21   -1    0    0  502  503  0.00000000000E+00  0.00000000000E+00 -0.27792697919E+03  0.27792697919E+03  0.00000000000E+00 0. -1.
       -6    2    1    2    0  503  0.74659414784E+02 -0.14282490920E+02 -0.12129032882E+03  0.22423554623E+03  0.17260422523E+03 0.  0.
      -24    2    3    3    0    0 -0.16113811039E+02 -0.21111939425E+02 -0.15992284885E+02  0.84965348602E+02  0.79107448415E+02 0.  0.
        6    2    1    2  501    0 -0.74659414784E+02  0.14282490920E+02 -0.21298034362E+02  0.18903004898E+03  0.17175778115E+03 0.  0.
       24    2    5    5    0    0 -0.95450947961E+02  0.27328040341E+02 -0.60000663698E+02  0.14295990976E+03  0.83544903493E+02 0.  0.
        5    1    5    5  501    0  0.20791533177E+02 -0.13045549421E+02  0.38702629336E+02  0.46070139214E+02  0.46999998093E+01 0. -1.
       -5    1    3    3    0  503  0.90773225823E+02  0.68294485056E+01 -0.10529804393E+03  0.13927019763E+03  0.46999998093E+01 0.  1.
       13    1    4    4    0    0 -0.11830305753E+02  0.21355367468E+02  0.18056774270E+02  0.30365357745E+02  0.00000000000E+00 0. -1.
      -13    1    6    6    0    0 -0.96047932304E+02 -0.51956169164E+01 -0.52476920291E+02  0.10957201695E+03  0.00000000000E+00 0.  1.
       14    1    6    6    0    0  0.59698434261E+00  0.32523657258E+02 -0.75237434070E+01  0.33387892814E+02  0.00000000000E+00 0. -1.
      -14    1    4    4    0    0 -0.42835052854E+01 -0.42467306893E+02 -0.34049059156E+02  0.54599990858E+02  0.00000000000E+00 0.  1.
</event>
<event>
12   0  0.9284400E-04  0.2184312E+03  0.7546771E-02  0.1135133E+00
       21   -1    0    0  501  502  0.00000000000E+00  0.00000000000E+00  0.23134578684E+03  0.23134578684E+03  0.00000000000E+00 0.  1.
       21   -1    0    0  502  503  0.00000000000E+00  0.00000000000E+00 -0.20618439364E+03  0.20618439364E+03  0.00000000000E+00 0.  1.
        6    2    1    2  501    0 -0.12041740590E+02  0.13304718572E+03  0.39460702881E+01  0.21846687766E+03  0.17281680480E+03 0.  0.
       24    2    3    3    0    0 -0.23306353580E+02  0.12727284276E+02 -0.37838926287E+02  0.90514362539E+02  0.77819635061E+02 0.  0.
       -6    2    1    2    0  503  0.12041740590E+02 -0.13304718572E+03  0.21215322913E+02  0.21906330282E+03  0.17231390997E+03 0.  0.
      -24    2    5    5    0    0 -0.51388233568E+02 -0.11588956491E+03  0.27654562810E+02  0.15287191832E+03  0.80832584777E+02 0.  0.
        5    1    3    3  501    0  0.11264612991E+02  0.12031990144E+03  0.41784996575E+02  0.12795251512E+03  0.46999998093E+01 0. -1.
       -5    1    5    5    0  503  0.63429974157E+02 -0.17157620812E+02 -0.64392398973E+01  0.66191384501E+02  0.46999998093E+01 0.  1.
       13    1    6    6    0    0 -0.41335174436E+02 -0.10063712775E+03 -0.11760802311E+02  0.10942917617E+03  0.00000000000E+00 0. -1.
      -13    1    4    4    0    0 -0.27966090559E+02  0.38816626214E+02 -0.46863125770E+01  0.48070720999E+02  0.00000000000E+00 0.  1.
       14    1    4    4    0    0  0.46597369784E+01 -0.26089341937E+02 -0.33152613710E+02  0.42443641541E+02  0.00000000000E+00 0. -1.
      -14    1    6    6    0    0 -0.10053059132E+02 -0.15252437159E+02  0.39415365121E+02  0.43442742142E+02  0.00000000000E+00 0.  1.
</event>
<event>
12   0  0.9284400E-04  0.1955171E+03  0.7546771E-02  0.1153618E+00
       21   -1    0    0  501  502  0.00000000000E+00  0.00000000000E+00  0.36169792723E+03  0.36169792723E+03  0.00000000000E+00 0. -1.
       21   -1    0    0  502  503  0.00000000000E+00  0.00000000000E+00 -0.10721063117E+03  0.10721063117E+03  0.00000000000E+00 0. -1.
       -6    2    1    2    0  503 -0.20585268793E+01 -0.91155107814E+02  0.15603709767E+03  0.25000359462E+03  0.17274469676E+03 0.  0.
      -24    2    3    3    0    0  0.30842585536E+02 -0.31716849069E+02  0.15730100931E+03  0.18189282255E+03  0.79900987290E+02 0.  0.
        6    2    1    2  501    0  0.20585268793E+01  0.91155107814E+02  0.98450198385E+02  0.21890496377E+03  0.17295505309E+03 0.  0.
       24    2    5    5    0    0  0.11632671730E+02 -0.21415467890E+01  0.95217410808E+02  0.12494502059E+03  0.80031228747E+02 0.  0.
        5    1    5    5  501    0 -0.95741448502E+01  0.93296654603E+02  0.32327875770E+01  0.93959943185E+02  0.46999998093E+01 0. -1.
       -5    1    3    3    0  503 -0.32901112416E+02 -0.59438258744E+02 -0.12639116319E+01  0.68110772067E+02  0.46999998093E+01 0.  1.
       13    1    4    4    0    0 -0.24755449680E+02 -0.15361970920E+02  0.28987091258E+02  0.41098344237E+02  0.00000000000E+00 0. -1.
      -13    1    6    6    0    0 -0.30434759917E+02  0.16683240772E+02  0.37757956589E+02  0.51286142569E+02  0.00000000000E+00 0.  1.
       14    1    6    6    0    0  0.42067431646E+02 -0.18824787561E+02  0.57459454219E+02  0.73658878020E+02  0.00000000000E+00 0. -1.
      -14    1    4    4    0    0  0.55598035217E+02 -0.16354878149E+02  0.12831391805E+03  0.14079447831E+03  0.00000000000E+00 0.  1.
</event>
<event>
12   0  0.9284400E-04  0.2091979E+03  0.7546771E-02  0.1144370E+00
       21   -1    0    0  503  502  0.00000000000E+00  0.00000000000E+00  0.20416244449E+03  0.20416244449E+03  0.00000000000E+00 0.  1.
       21   -1    0    0  501  503  0.00000000000E+00  0.00000000000E+00 -0.31779768130E+03  0.31779768130E+03  0.00000000000E+00 0.  1.
        6    2    1    2  501    0  0.67971022828E+02  0.68708593604E+02 -0.21414703711E+03  0.29937052084E+03  0.18553389035E+03 0.  0.
       24    2    3    3    0    0  0.13395026106E+02  0.54418966572E+02 -0.32476184285E+02  0.10908357536E+03  0.87770571489E+02 0.  0.
       -6    2    1    2    0  502 -0.67971022828E+02 -0.68708593604E+02  0.10051180029E+03  0.22258960495E+03  0.17350094943E+03 0.  0.
      -24    2    5    5    0    0  0.22002557114E+02 -0.71207847722E+02  0.66542339325E+02  0.12626979579E+03  0.77210804363E+02 0.  0.
        5    1    3    3  501    0  0.54575996722E+02  0.14289627031E+02 -0.18167085283E+03  0.19028694549E+03  0.46999998093E+01 0. -1.
       -5    1    5    5    0  502 -0.89973579942E+02  0.24992541183E+01  0.33969460970E+02  0.96319809154E+02  0.46999998093E+01 0.  1.
       13    1    6    6    0    0  0.13637965305E+01 -0.54340259682E+02 -0.24719623369E+00  0.54357932901E+02  0.00000000000E+00 0. -1.
      -13    1    4    4    0    0 -0.36294270609E+02  0.35582425297E+02 -0.18994529238E+02  0.54260254423E+02  0.00000000000E+00 0.  1.
       14    1    4    4    0    0  0.49689296715E+02  0.18836541275E+02 -0.13481655047E+02  0.54823320932E+02  0.00000000000E+00 0. -1.
      -14    1    6    6    0    0  0.20638760583E+02 -0.16867588040E+02  0.66789535558E+02  0.71911862893E+02  0.00000000000E+00 0.  1.
</event>
<event>
12   0  0.9284400E-04  0.1778487E+03  0.7546771E-02  0.1170068E+00
       21   -1    0    0  501  502  0.00000000000E+00  0.00000000000E+00  0.15881131631E+03  0.15881131631E+03  0.00000000000E+00 0.  1.
       21   -1    0    0  502  503  0.00000000000E+00  0.00000000000E+00 -0.20277120893E+03  0.20277120893E+03  0.00000000000E+00 0.  1.
       -6    2    1    2    0  503 -0.25805562168E+02 -0.26429106334E+02  0.44848053381E+01  0.17790527342E+03  0.17397053811E+03 0.  0.
      -24    2    3    3    0    0  0.73894612122E+00 -0.28589578414E+02  0.69317085910E+02  0.10765861398E+03  0.77250299224E+02 0.  0.
        6    2    1    2  501    0  0.25805562168E+02  0.26429106334E+02 -0.48444697965E+02  0.18367725182E+03  0.17328017594E+03 0.  0.
       24    2    5    5    0    0  0.19073163013E+01  0.12300246334E+02  0.44557388709E+02  0.86506119456E+02  0.73095922591E+02 0.  0.
        5    1    5    5  501    0  0.23898245867E+02  0.14128860000E+02 -0.93002086674E+02  0.97171132361E+02  0.46999998093E+01 0. -1.
       -5    1    3    3    0  503 -0.26544508289E+02  0.21604720795E+01 -0.64832280572E+02  0.70246659438E+02  0.46999998093E+01 0.  1.
       13    1    4    4    0    0 -0.85234499291E+01  0.14044228693E+02  0.61091202945E+02  0.63261557328E+02  0.00000000000E+00 0. -1.
      -13    1    6    6    0    0  0.17954231261E+02  0.27063431350E+02 -0.45317447824E+01  0.32792079034E+02  0.00000000000E+00 0.  1.
       14    1    6    6    0    0 -0.16046914959E+02 -0.14763185016E+02  0.49089133492E+02  0.53714040422E+02  0.00000000000E+00 0. -1.
      -14    1    4    4    0    0  0.92623960503E+01 -0.42633807107E+02  0.82258829649E+01  0.44397056654E+02  0.00000000000E+00 0.  1.
</event>
<event>
12   0  0.9284400E-04  0.2711011E+03  0.7546771E-02  0.1101311E+00
       21   -1    0    0  501  502  0.00000000000E+00  0.00000000000E+00  0.10641444554E+04  0.10641444554E+04  0.00000000000E+00 0. -1.
       21   -1    0    0  502  503  0.00000000000E+00  0.00000000000E+00 -0.77287565371E+02  0.77287565371E+02  0.00000000000E+00 0. -1.
       -6    2    1    2    0  503  0.11212485819E+03 -0.16921923631E+03  0.29083465179E+03  0.39447636791E+03  0.17268374678E+03 0.  0.
      -24    2    3    3    0    0  0.12892489537E+03 -0.16381200413E+03  0.18674721175E+03  0.28879872326E+03  0.71233279540E+02 0.  0.
        6    2    1    2  501    0 -0.11212485819E+03  0.16921923631E+03  0.69602223829E+03  0.74695565290E+03  0.17969044896E+03 0.  0.
       24    2    5    5    0    0 -0.10102922347E+03  0.41084148052E+02  0.43717746195E+03  0.45788053777E+03  0.81459452590E+02 0.  0.
        5    1    5    5  501    0 -0.11095634724E+02  0.12813508825E+03  0.25884477634E+03  0.28907511513E+03  0.46999998093E+01 0. -1.
       -5    1    3    3    0  503 -0.16800037179E+02 -0.54072321750E+01  0.10408744003E+03  0.10567764466E+03  0.46999998093E+01 0.  1.
       13    1    4    4    0    0  0.53719727716E+02 -0.24047843872E+02  0.31386947429E+02  0.66702686675E+02  0.00000000000E+00 0. -1.
      -13    1    6    6    0    0  0.87248743351E+00 -0.11450077792E+02  0.89137458000E+01  0.14536862796E+02  0.00000000000E+00 0.  1.
       14    1    6    6    0    0 -0.10190171090E+03  0.52534225843E+02  0.42826371615E+03  0.44334367497E+03  0.00000000000E+00 0. -1.
      -14    1    4    4    0    0  0.75205167655E+02 -0.13976416026E+03  0.15536026432E+03  0.22209603658E+03  0.00000000000E+00 0.  1.
</event>
<event>
12   0  0.9284400E-04  0.1829758E+03  0.7546771E-02  0.1166793E+00
       21   -1    0    0  503  502  0.00000000000E+00  0.00000000000E+00  0.49599472286E+03  0.49599472286E+03  0.00000000000E+00 0.  1.
       21   -1    0    0  501  503  0.00000000000E+00  0.00000000000E+00 -0.74077324439E+02  0.74077324439E+02  0.00000000000E+00 0.  1.
        6    2    1    2  501    0  0.27341371380E+02 -0.10632199765E+02  0.10582222907E+03  0.20483747911E+03  0.17291458706E+03 0.  0.
       24    2    3    3    0    0  0.58748162333E+02 -0.33871063886E+02  0.15522483400E+02  0.10633587815E+03  0.80422484076E+02 0.  0.
       -6    2    1    2    0  502 -0.27341371380E+02  0.10632199765E+02  0.31609516934E+03  0.36523456819E+03  0.18060880227E+03 0.  0.
      -24    2    5    5    0    0 -0.18677303838E+02 -0.50221431843E+02  0.27286793885E+03  0.28994237735E+03  0.82089196852E+02 0.  0.
        5    1    3    3  501    0 -0.31406790953E+02  0.23238864122E+02  0.90299745674E+02  0.98501600954E+02  0.46999998093E+01 0. -1.
       -5    1    5    5    0  502 -0.86640675421E+01  0.60853631608E+02  0.43227230495E+02  0.75292190835E+02  0.46999998093E+01 0.  1.
       13    1    6    6    0    0  0.29361057673E+02 -0.18168535247E+02  0.58477770547E+02  0.67910360246E+02  0.00000000000E+00 0. -1.
      -13    1    4    4    0    0  0.20542622858E+02 -0.34811958390E+02 -0.27424787362E+02  0.48846604413E+02  0.00000000000E+00 0.  1.
       14    1    4    4    0    0  0.38205539476E+02  0.94089450386E+00  0.42947270762E+02  0.57489273739E+02  0.00000000000E+00 0. -1.
      -14    1    6    6    0    0 -0.48038361511E+02 -0.32052896597E+02  0.21439016830E+03  0.22203201711E+03  0.00000000000E+00 0.  1.
</event>
<event>
12   0  0.9284400E-04  0.3413943E+03  0.7546771E-02  0.1066204E+00
       -1   -1    0    0    0  501  0.00000000000E+00  0.00000000000E+00  0.10792712971E+04  0.10792712971E+04  0.00000000000E+00 0. -1.
        1   -1    0    0  502    0  0.00000000000E+00  0.00000000000E+00 -0.10946688232E+03  0.10946688232E+03  0.00000000000E+00 0.  1.
        6    2    1    2  502    0 -0.18293711931E+02 -0.29352093088E+03  0.41543082093E+03  0.53751783773E+03  0.17278154457E+03 0.  0.
       24    2    3    3    0    0 -0.47885910541E+01 -0.14704301924E+03  0.11621034845E+03  0.20406147172E+03  0.80570832457E+02 0.  0.
       -6    2    1    2    0  501  0.18293711931E+02  0.29352093088E+03  0.55437359386E+03  0.65122034169E+03  0.17397889268E+03 0.  0.
      -24    2    5    5    0    0  0.40466953230E+01  0.21072313347E+03  0.50602017810E+03  0.55417089269E+03  0.81414635859E+02 0.  0.
        5    1    3    3  502    0 -0.13505120877E+02 -0.14647791165E+03  0.29922047247E+03  0.33345636601E+03  0.46999998093E+01 0. -1.
       -5    1    5    5    0  501  0.14247016608E+02  0.82797797408E+02  0.48353415760E+02  0.97049449002E+02  0.46999998093E+01 0.  1.
       13    1    6    6    0    0  0.39937336262E+02  0.10360158402E+03  0.21468675341E+03  0.24169956792E+03  0.00000000000E+00 0. -1.
      -13    1    4    4    0    0 -0.18132964068E+02 -0.33385643136E+02 -0.38641199910E+01  0.38188178495E+02  0.00000000000E+00 0.  1.
       14    1    4    4    0    0  0.13344373014E+02 -0.11365737610E+03  0.12007446845E+03  0.16587329323E+03  0.00000000000E+00 0. -1.
      -14    1    6    6    0    0 -0.35890640939E+02  0.10712154945E+03  0.29133342469E+03  0.31247132477E+03  0.00000000000E+00 0.  1.
</event>
<event>
12   0  0.9284400E-04  0.1930336E+03  0.7546771E-02  0.1156112E+00
       21   -1    0    0  503  502  0.00000000000E+00  0.00000000000E+00  0.24741656657E+03  0.24741656657E+03  0.00000000000E+00 0.  1.
       21   -1    0    0  501  503  0.00000000000E+00  0.00000000000E+00 -0.22956855642E+03  0.22956855642E+03  0.00000000000E+00 0.  1.
        6    2    1    2  501    0  0.43808796295E+02 -0.72677489784E+02 -0.13208435193E+03  0.23256399840E+03  0.17157654027E+03 0.  0.
       24    2    3    3    0    0  0.15622245061E+02  0.90176053621E+01 -0.11524953116E+02  0.84155006477E+02  0.81387153923E+02 0.  0.
       -6    2    1    2    0  502 -0.43808796295E+02  0.72677489784E+02  0.14993236209E+03  0.24442112460E+03  0.17338034719E+03 0.  0.
      -24    2    5    5    0    0 -0.58601811445E+02  0.81400867309E+02  0.48245109808E+02  0.14118683820E+03  0.86866904844E+02 0.  0.
        5    1    3    3  501    0  0.28186551234E+02 -0.81695095146E+02 -0.12055939882E+03  0.14840899192E+03  0.46999998093E+01 0. -1.
       -5    1    5    5    0  502  0.14793015151E+02 -0.87233775252E+01  0.10168725228E+03  0.10323428640E+03  0.46999998093E+01 0.  1.
       13    1    6    6    0    0 -0.12086712672E+00  0.53263213215E+02 -0.97534757146E+01  0.54149005340E+02  0.00000000000E+00 0. -1.
      -13    1    4    4    0    0  0.22391490662E+02 -0.33355894241E+02 -0.21499222889E+01  0.40232035749E+02  0.00000000000E+00 0.  1.
       14    1    4    4    0    0 -0.67692456010E+01  0.42373499603E+02 -0.93750308270E+01  0.43922970728E+02  0.00000000000E+00 0. -1.
      -14    1    6    6    0    0 -0.58480944318E+02  0.28137654094E+02  0.57998585522E+02  0.87037832859E+02  0.00000000000E+00 0.  1.
</event>
<event>
12   0  0.9284400E-04  0.1795552E+03  0.7546771E-02  0.1168726E+00
       21   -1    0    0  501  502  0.00000000000E+00  0.00000000000E+00  0.23572555436E+03  0.23572555436E+03  0.00000000000E+00 0. -1.
       21   -1    0    0  502  503  0.00000000000E+00  0.00000000000E+00 -0.13525005845E+03  0.13525005845E+03  0.00000000000E+00 0. -1.
       -6    2    1    2    0  503  0.41410901192E+02  0.99979376736E+01  0.48828284257E+02  0.18607594203E+03  0.17442830436E+03 0.  0.
      -24    2    3    3    0    0 -0.27237631316E+02  0.27312160937E+02 -0.17482539073E+02  0.88959421127E+02  0.78232325416E+02 0.  0.
        6    2    1    2  501    0 -0.41410901192E+02 -0.99979376736E+01  0.51647211654E+02  0.18489967079E+03  0.17235321955E+03 0.  0.
       24    2    5    5    0    0 -0.43815006271E+02  0.51136065288E+02  0.59283111364E+00  0.10507620425E+03  0.80659812193E+02 0.  0.
        5    1    5    5  501    0  0.24041050792E+01 -0.61134002961E+02  0.51054380540E+02  0.79823466536E+02  0.46999998093E+01 0. -1.
       -5    1    3    3    0  503  0.68648532508E+02 -0.17314223264E+02  0.66310823330E+02  0.97116520900E+02  0.46999998093E+01 0.  1.
       13    1    4    4    0    0 -0.17440456108E+02  0.65542772113E+01 -0.47585901349E+02  0.51103288213E+02  0.00000000000E+00 0. -1.
      -13    1    6    6    0    0 -0.26981472352E+02  0.67772878552E+02  0.18666632374E+02  0.75296786663E+02  0.00000000000E+00 0.  1.
       14    1    6    6    0    0 -0.16833533919E+02 -0.16636813264E+02 -0.18073801260E+02  0.29779417587E+02  0.00000000000E+00 0. -1.
      -14    1    4    4    0    0 -0.97971752079E+01  0.20757883726E+02  0.30103362276E+02  0.37856132913E+02  0.00000000000E+00 0.  1.
</event>
<event>
12   0  0.9284400E-04  0.2104721E+03  0.7546771E-02  0.1141193E+00
        1   -1    0    0  502    0  0.00000000000E+00  0.00000000000E+00  0.58226375869E+02  0.58226375869E+02  0.00000000000E+00 0. -1.
       -1   -1    0    0    0  501  0.00000000000E+00  0.00000000000E+00 -0.85821515274E+03  0.85821515274E+03  0.00000000000E+00 0.  1.
        6    2    1    2  502    0  0.11869702355E+03 -0.12631734388E+02 -0.55494342108E+03  0.59363564427E+03  0.17375998801E+03 0.  0.
       24    2    3    3    0    0  0.78768793844E+02 -0.50861195400E+02 -0.50120332767E+03  0.51639677546E+03  0.81666822851E+02 0.  0.
       -6    2    1    2    0  501 -0.11869702355E+03  0.12631734388E+02 -0.24504535580E+03  0.32280588435E+03  0.17293891539E+03 0.  0.
      -24    2    5    5    0    0 -0.10219723721E+03  0.62962013810E+02 -0.12316810829E+03  0.18983395710E+03  0.80362042618E+02 0.  0.
        5    1    3    3  502    0  0.39928229711E+02  0.38229461012E+02 -0.53740093401E+02  0.77238868804E+02  0.46999998093E+01 0. -1.
       -5    1    5    5    0  501 -0.16499786345E+02 -0.50330279421E+02 -0.12187724751E+03  0.13297192724E+03  0.46999998093E+01 0.  1.
       13    1    6    6    0    0 -0.10464084900E+03  0.29562887196E+02 -0.78996204508E+02  0.13440264843E+03  0.00000000000E+00 0. -1.
      -13    1    4    4    0    0  0.46220454873E+02 -0.25626238255E+01 -0.91183867109E+02  0.10226140577E+03  0.00000000000E+00 0.  1.
       14    1    4    4    0    0  0.32548338971E+02 -0.48298571575E+02 -0.41001946056E+03  0.41413536969E+03  0.00000000000E+00 0. -1.
      -14    1    6    6    0    0  0.24436117937E+01  0.33399126614E+02 -0.44171903779E+02  0.55431308668E+02  0.00000000000E+00 0.  1.
</event>
<event>
12   0  0.9284400E-04  0.2585978E+03  0.7546771E-02  0.1107989E+00
        2   -1    0    0  502    0  0.00000000000E+00  0.00000000000E+00  0.10628090619E+04  0.10628090619E+04  0.00000000000E+00 0.  1.
       -2   -1    0    0    0  501  0.00000000000E+00  0.00000000000E+00 -0.78875976648E+02  0.78875976648E+02  0.00000000000E+00 0. -1.
        6    2    1    2  502    0  0.11993357705E+03 -0.15037006759E+03  0.74883403480E+03  0.79225533102E+03  0.17297652360E+03 0.  0.
       24    2    3    3    0    0  0.14047422665E+03 -0.87357435873E+02  0.62386064097E+03  0.65071752969E+03  0.82866604442E+02 0.  0.
       -6    2    1    2    0  501 -0.11993357705E+03  0.15037006759E+03  0.23509905049E+03  0.34942970757E+03  0.17272619043E+03 0.  0.
      -24    2    5    5    0    0 -0.86020780357E+02  0.10458789220E+03  0.24472380118E+03  0.29145720385E+03  0.81971708321E+02 0.  0.
        5    1    3    3  502    0 -0.20540649599E+02 -0.63012631721E+02  0.12497339383E+03  0.14153780133E+03  0.46999998093E+01 0. -1.
       -5    1    5    5    0  501 -0.33912796690E+02  0.45782175391E+02 -0.96247506926E+01  0.57972503715E+02  0.46999998093E+01 0.  1.
       13    1    6    6    0    0  0.23143596207E+01  0.47788017304E+02  0.11497169605E+03  0.12452928070E+03  0.00000000000E+00 0. -1.
      -13    1    4    4    0    0  0.13230306214E+03 -0.45803069116E+02  0.42752340023E+03  0.44986473427E+03  0.00000000000E+00 0.  1.
       14    1    4    4    0    0  0.81711645097E+01 -0.41554366756E+02  0.19633724074E+03  0.20085279542E+03  0.00000000000E+00 0. -1.
      -14    1    6    6    0    0 -0.88335139978E+02  0.56799874898E+02  0.12975210513E+03  0.16692792316E+03  0.00000000000E+00 0.  1.
</event>
<event>
12   0  0.9284400E-04  0.1825286E+03  0.7546771E-02  0.1166104E+00
       21   -1    0    0  503  502  0.00000000000E+00  0.00000000000E+00  0.32393688195E+03  0.32393688195E+03  0.00000000000E+00 0. -1.
       21   -1    0    0  501  503  0.00000000000E+00  0.00000000000E+00 -0.28780482567E+03  0.28780482567E+03  0.00000000000E+00 0. -1.
        6    2    1    2  501    0  0.30801647373E+02  0.37401351034E+02 -0.22830861772E+03  0.29042323174E+03  0.17283872849E+03 0.  0.
       24    2    3    3    0    0 -0.29923992182E+02  0.15580747613E+02 -0.55340807364E+02  0.10575137289E+03  0.83561611424E+02 0.  0.
       -6    2    1    2    0  502 -0.30801647373E+02 -0.37401351034E+02  0.26444067399E+03  0.32131847588E+03  0.17598036919E+03 0.  0.
      -24    2    5    5    0    0 -0.68002114228E+02 -0.47877582242E+02  0.94020304383E+02  0.14650766806E+03  0.75552159088E+02 0.  0.
        5    1    3    3  501    0  0.60725639555E+02  0.21820603421E+02 -0.17296781036E+03  0.18467185885E+03  0.46999998093E+01 0. -1.
       -5    1    5    5    0  502  0.37200466855E+02  0.10476231208E+02  0.17042036961E+03  0.17481080782E+03  0.46999998093E+01 0.  1.
       13    1    6    6    0    0 -0.28380064235E+02 -0.31468196253E+02  0.94557704809E+02  0.10361869986E+03  0.00000000000E+00 0. -1.
      -13    1    4    4    0    0 -0.34160856498E+02  0.44714613427E+02 -0.51094026820E+02  0.76006317812E+02  0.00000000000E+00 0.  1.
       14    1    4    4    0    0  0.42368643159E+01 -0.29133865814E+02 -0.42467805438E+01  0.29745055076E+02  0.00000000000E+00 0. -1.
      -14    1    6    6    0    0 -0.39622049993E+02 -0.16409385990E+02 -0.53740042555E+00  0.42888968202E+02  0.00000000000E+00 0.  1.
</event>
<event>
12   0  0.9284400E-04  0.1943476E+03  0.7546771E-02  0.1154999E+00
       21   -1    0    0  503  502  0.00000000000E+00  0.00000000000E+00  0.95084475982E+03  0.95084475982E+03  0.00000000000E+00 0.  1.
       21   -1    0    0  501  503  0.00000000000E+00  0.00000000000E+00 -0.41534121751E+02  0.41534121751E+02  0.00000000000E+00 0.  1.
        6    2    1    2  501    0 -0.70239663511E+02  0.53142121154E+02  0.34293979236E+03  0.39418101991E+03  0.17324341229E+03 0.  0.
       24    2    3    3    0    0 -0.11266004242E+03  0.13901791348E+02  0.25654426726E+03  0.29013502631E+03  0.74012346702E+02 0.  0.
       -6    2    1    2    0  502  0.70239663511E+02 -0.53142121154E+02  0.56637084571E+03  0.59819786166E+03  0.17119302397E+03 0.  0.
      -24    2    5    5    0    0  0.22962706351E+02 -0.35309635238E+02  0.12748987550E+03  0.15639280936E+03  0.80193430154E+02 0.  0.
        5    1    3    3  501    0  0.42420378906E+02  0.39240329806E+02  0.86395525093E+02  0.10404599360E+03  0.46999998093E+01 0. -1.
       -5    1    5    5    0  502  0.47276957160E+02 -0.17832485916E+02  0.43888097021E+03  0.44180505231E+03  0.46999998093E+01 0.  1.
       13    1    6    6    0    0  0.18022216851E+02  0.23432066714E+02  0.59264571030E+02  0.66228026016E+02  0.00000000000E+00 0. -1.
      -13    1    4    4    0    0 -0.45910191900E+02  0.29786594329E+02  0.56536010729E+02  0.78684861512E+02  0.00000000000E+00 0.  1.
       14    1    4    4    0    0 -0.66749850518E+02 -0.15884802981E+02  0.20000825654E+03  0.21145016480E+03  0.00000000000E+00 0. -1.
      -14    1    6    6    0    0  0.49404895005E+01 -0.58741701952E+02  0.68225304471E+02  0.90164783340E+02  0.00000000000E+00 0.  1.
</event>
<event>
12   0  0.9284400E-04  0.1793585E+03  0.7546771E-02  0.1168982E+00
       21   -1    0    0  501  502  0.00000000000E+00  0.00000000000E+00  0.79988424881E+02  0.79988424881E+02  0.00000000000E+00 0. -1.
       21   -1    0    0  502  503  0.00000000000E+00  0.00000000000E+00 -0.93153462895E+03  0.93153462895E+03  0.00000000000E+00 0. -1.
       -6    2    1    2    0  503  0.22743066601E+02  0.25531187171E+02 -0.81001245011E+03  0.82963223329E+03  0.17606926074E+03 0.  0.
      -24    2    3    3    0    0  0.41923770039E+02 -0.33117182485E+02 -0.66123188158E+03  0.66849478197E+03  0.82482252808E+02 0.  0.
        6    2    1    2  501    0 -0.22743066601E+02 -0.25531187171E+02 -0.41533753956E+02  0.18189082054E+03  0.17375306985E+03 0.  0.
       24    2    5    5    0    0 -0.40031896298E+02  0.25478529103E+01 -0.87816140454E+02  0.12486902276E+03  0.79193143924E+02 0.  0.
        5    1    5    5  501    0  0.17288829698E+02 -0.28079040082E+02  0.46282386498E+02  0.57021797783E+02  0.46999998093E+01 0. -1.
       -5    1    3    3    0  503 -0.19180703438E+02  0.58648369657E+02 -0.14878056853E+03  0.16113745132E+03  0.46999998093E+01 0.  1.
       13    1    4    4    0    0  0.57103349285E+00 -0.49127323305E+02 -0.24288148591E+03  0.24780079938E+03  0.00000000000E+00 0. -1.
      -13    1    6    6    0    0  0.17367674276E+02 -0.20358214157E+02 -0.30575281725E+02  0.40631771386E+02  0.00000000000E+00 0.  1.
       14    1    6    6    0    0 -0.57399570574E+02  0.22906067067E+02 -0.57240858729E+02  0.84237251372E+02  0.00000000000E+00 0. -1.
      -14    1    4    4    0    0  0.41352736546E+02  0.16010140820E+02 -0.41835039567E+03  0.42069398259E+03  0.00000000000E+00 0.  1.
</event>
<event>
12   0  0.9284400E-04  0.1777082E+03  0.7546771E-02  0.1170071E+00
       21   -1    0    0  503  502  0.00000000000E+00  0.00000000000E+00  0.88260605534E+02  0.88260605534E+02  0.00000000000E+00 0.  1.
       21   -1    0    0  501  503  0.00000000000E+00  0.00000000000E+00 -0.62642825128E+03  0.62642825128E+03  0.00000000000E+00 0.  1.
        6    2    1    2  501    0  0.38466769589E+02 -0.42459584357E+01 -0.50314302833E+03  0.53356198513E+03  0.17331406317E+03 0.  0.
       24    2    3    3    0    0  0.74033544800E+02 -0.21327849483E+02 -0.21221686786E+03  0.23993482810E+03  0.81221178350E+02 0.  0.
       -6    2    1    2    0  502 -0.38466769589E+02  0.42459584357E+01 -0.35024617413E+02  0.18112687168E+03  0.17344307220E+03 0.  0.
      -24    2    5    5    0    0 -0.80255740133E+02 -0.33248380244E+02 -0.17856594589E+02  0.12222887088E+03  0.84110643167E+02 0.  0.
        5    1    3    3  501    0 -0.35566775211E+02  0.17081891048E+02 -0.29092616047E+03  0.29362715703E+03  0.46999998093E+01 0. -1.
       -5    1    5    5    0  502  0.41788970544E+02  0.37494338679E+02 -0.17168022824E+02  0.58898000798E+02  0.46999998093E+01 0.  1.
       13    1    6    6    0    0 -0.42429856331E+02  0.23297419139E+02 -0.23797888797E+02  0.53938872421E+02  0.00000000000E+00 0. -1.
      -13    1    4    4    0    0  0.26798817261E+02 -0.12785719776E+02 -0.17927554172E+03  0.18171783374E+03  0.00000000000E+00 0.  1.
       14    1    4    4    0    0  0.47234727539E+02 -0.85421297079E+01 -0.32941326139E+02  0.58216994369E+02  0.00000000000E+00 0. -1.
      -14    1    6    6    0    0 -0.37825883801E+02 -0.56545799382E+02  0.59412942086E+01  0.68289998462E+02  0.00000000000E+00 0.  1.
</event>
<event>
12   0  0.9284400E-04  0.3466299E+03  0.7546771E-02  0.1064034E+00
       21   -1    0    0  501  502  0.00000000000E+00  0.00000000000E+00  0.86258002937E+02  0.86258002937E+02  0.00000000000E+00 0. -1.
       21   -1    0    0  502  503  0.00000000000E+00  0.00000000000E+00 -0.13943964609E+04  0.13943964609E+04  0.00000000000E+00 0.  1.
       -6    2    1    2    0  503 -0.28706665439E+03 -0.89271477575E+02 -0.62282307437E+03  0.71278388466E+03  0.17255614593E+03 0.  0.
      -24    2    3    3    0    0 -0.92557376934E+02 -0.82309394783E+02 -0.23359864400E+03  0.27758269348E+03  0.84511068779E+02 0.  0.
        6    2    1    2  501    0  0.28706665439E+03  0.89271477575E+02 -0.68531538355E+03  0.76787057913E+03  0.17202148295E+03 0.  0.
       24    2    5    5    0    0  0.93655109434E+02 -0.12775979055E+02 -0.30168690530E+03  0.32626599531E+03  0.80622612865E+02 0.  0.
        5    1    5    5  501    0  0.19341154495E+03  0.10204745663E+03 -0.38362847825E+03  0.44160458382E+03  0.46999998093E+01 0. -1.
       -5    1    3    3    0  503 -0.19450927745E+03 -0.69620827920E+01 -0.38922443037E+03  0.43520119118E+03  0.46999998093E+01 0.  1.
       13    1    4    4    0    0 -0.10034327703E+03 -0.77572106156E+02 -0.23620576825E+03  0.26810328206E+03  0.00000000000E+00 0. -1.
      -13    1    6    6    0    0  0.96245625683E+02 -0.10383073779E+02 -0.17875889967E+03  0.20328741450E+03  0.00000000000E+00 0.  1.
       14    1    6    6    0    0 -0.25905162496E+01 -0.23929052759E+01 -0.12292800563E+03  0.12297858081E+03  0.00000000000E+00 0. -1.
      -14    1    4    4    0    0  0.77859000978E+01 -0.47372886276E+01  0.26071242526E+01  0.94794114133E+01  0.00000000000E+00 0.  1.
</event>
<event>
12   0  0.9284400E-04  0.2051146E+03  0.7546771E-02  0.1145738E+00
       21   -1    0    0  501  502  0.00000000000E+00  0.00000000000E+00  0.16269574102E+03  0.16269574102E+03  0.00000000000E+00 0.  1.
       21   -1    0    0  502  503  0.00000000000E+00  0.00000000000E+00 -0.32501527430E+03  0.32501527430E+03  0.00000000000E+00 0.  1.
       -6    2    1    2    0  503 -0.10728336394E+03  0.18318964250E+02 -0.19282454335E+03  0.28151962719E+03  0.17385825074E+03 0.  0.
      -24    2    3    3    0    0 -0.11960247483E+03  0.61887752243E+02 -0.16621293832E+03  0.22879138713E+03  0.81141309426E+02 0.  0.
        6    2    1    2  501    0  0.10728336394E+03 -0.18318964250E+02  0.30505010066E+02  0.20619138813E+03  0.17245007472E+03 0.  0.
       24    2    5    5    0    0 -0.81223628993E+01  0.18100221667E+02  0.15554564345E+02  0.84164978219E+02  0.80300736504E+02 0.  0.
        5    1    5    5  501    0  0.11540572684E+03 -0.36419185917E+02  0.14950445721E+02  0.12202640991E+03  0.46999998093E+01 0. -1.
       -5    1    3    3    0  503  0.12319110890E+02 -0.43568787994E+02 -0.26611605027E+02  0.52728240068E+02  0.46999998093E+01 0.  1.
       13    1    4    4    0    0 -0.37782267757E+02  0.80787734653E+01 -0.33857170827E+01  0.38784396576E+02  0.00000000000E+00 0. -1.
      -13    1    6    6    0    0  0.57787898996E+01 -0.26697937233E+02 -0.11921824047E+02  0.29804431781E+02  0.00000000000E+00 0.  1.
       14    1    6    6    0    0 -0.13901152799E+02  0.44798158899E+02  0.27476388392E+02  0.54360546438E+02  0.00000000000E+00 0. -1.
      -14    1    4    4    0    0 -0.81820207073E+02  0.53808978778E+02 -0.16282722124E+03  0.19000699055E+03  0.00000000000E+00 0.  1.
</event>
<event>
12   0  0.9284400E-04  0.1739376E+03  0.7546771E-02  0.1173845E+00
       21   -1    0    0  503  502  0.00000000000E+00  0.00000000000E+00  0.12495250047E+03  0.12495250047E+03  0.00000000000E+00 0. -1.
       21   -1    0    0  501  503  0.00000000000E+00  0.00000000000E+00 -0.25085789854E+03  0.25085789854E+03  0.00000000000E+00 0. -1.
        6    2    1    2  501    0 -0.98971572536E+01  0.15299356210E+01 -0.98502461065E+02  0.19989255166E+03  0.17364907989E+03 0.  0.
       24    2    3    3    0    0 -0.70393085798E+02  0.22780738295E+02 -0.74164157837E+02  0.13114811925E+03  0.78900939856E+02 0.  0.
       -6    2    1    2    0  502  0.98971572536E+01 -0.15299356210E+01 -0.27402937001E+02  0.17591784735E+03  0.17348162334E+03 0.  0.
      -24    2    5    5    0    0  0.20199737939E+02 -0.54303345028E+02 -0.56886739625E+02  0.11441532281E+03  0.80609442715E+02 0.  0.
        5    1    3    3  501    0  0.60495928544E+02 -0.21250802674E+02 -0.24338303228E+02  0.68744432407E+02  0.46999998093E+01 0. -1.
       -5    1    5    5    0  502 -0.10302580686E+02  0.52773409407E+02  0.29483802624E+02  0.61502524538E+02  0.46999998093E+01 0.  1.
       13    1    6    6    0    0 -0.24731508049E+02 -0.18752163876E+02 -0.46925529396E+02  0.56260967371E+02  0.00000000000E+00 0. -1.
      -13    1    4    4    0    0 -0.14664676228E+02 -0.17304093477E+02 -0.55579397398E+02  0.60029607654E+02  0.00000000000E+00 0.  1.
       14    1    4    4    0    0 -0.55728409569E+02  0.40084831772E+02 -0.18584760439E+02  0.71118511598E+02  0.00000000000E+00 0. -1.
      -14    1    6    6    0    0  0.44931245989E+02 -0.35551181152E+02 -0.99612102286E+01  0.58154355440E+02  0.00000000000E+00 0.  1.
</event>
<event>
12   0  0.9284400E-04  0.2461211E+03  0.7546771E-02  0.1115792E+00
       21   -1    0    0  501  502  0.00000000000E+00  0.00000000000E+00  0.77230213742E+02  0.77230213742E+02  0.00000000000E+00 0. -1.
       21   -1    0    0  502  503  0.00000000000E+00  0.00000000000E+00 -0.80042514485E+03  0.80042514485E+03  0.00000000000E+00 0.  1.
        6    2    1    2  501    0 -0.99561882135E+02  0.14464580808E+03 -0.29893864271E+03  0.38717703126E+03  0.17235650048E+03 0.  0.
       24    2    3    3    0    0 -0.33845480175E+01  0.11432199639E+03 -0.21110714829E+03  0.25336344987E+03  0.80906338735E+02 0.  0.
       -6    2    1    2    0  503  0.99561882135E+02 -0.14464580808E+03 -0.42425628840E+03  0.49047832733E+03  0.17245466989E+03 0.  0.
      -24    2    5    5    0    0  0.51781787150E+01 -0.16672879550E+02 -0.16865485742E+03  0.18941432181E+03  0.84430598280E+02 0.  0.
        5    1    3    3  501    0 -0.96177334118E+02  0.30323811691E+02 -0.87831494421E+02  0.13381358139E+03  0.46999998093E+01 0. -1.
       -5    1    5    5    0  503  0.94383703420E+02 -0.12797292853E+03 -0.25560143097E+03  0.30106400553E+03  0.46999998093E+01 0.  1.
       13    1    6    6    0    0  0.39585515147E+02 -0.26739952251E+02 -0.72791206387E+02  0.87066628413E+02  0.00000000000E+00 0. -1.
      -13    1    4    4    0    0 -0.69122619439E+01  0.95364966248E+02 -0.91942190144E+02  0.13264849219E+03  0.00000000000E+00 0.  1.
       14    1    4    4    0    0  0.35277139264E+01  0.18957030145E+02 -0.11916495815E+03  0.12071495768E+03  0.00000000000E+00 0. -1.
      -14    1    6    6    0    0 -0.34407336432E+02  0.10067072701E+02 -0.95863651036E+02  0.10234769339E+03  0.00000000000E+00 0.  1.
</event>
<event>
12   0  0.9284400E-04  0.2500359E+03  0.7546771E-02  0.1113539E+00
       21   -1    0    0  501  502  0.00000000000E+00  0.00000000000E+00  0.29239191998E+03  0.29239191998E+03  0.00000000000E+00 0.  1.
       21   -1    0    0  502  503  0.00000000000E+00  0.00000000000E+00 -0.29222134286E+03  0.29222134286E+03  0.00000000000E+00 0. -1.
       -6    2    1    2    0  503 -0.89468215913E+02  0.15494330835E+03 -0.15265268654E+03  0.29295190549E+03  0.17465962831E+03 0.  0.
      -24    2    3    3    0    0  0.12478733057E+02  0.78658628427E+02 -0.11323223222E+03  0.15957801370E+03  0.79376983049E+02 0.  0.
        6    2    1    2  501    0  0.89468215913E+02 -0.15494330835E+03  0.15282326365E+03  0.29166135735E+03  0.17233515891E+03 0.  0.
       24    2    5    5    0    0  0.40484747788E+02 -0.39326311466E+02  0.12215127497E+02  0.10308933379E+03  0.85396884160E+02 0.  0.
        5    1    5    5  501    0  0.48983468125E+02 -0.11561699688E+03  0.14060813615E+03  0.18857202356E+03  0.46999998093E+01 0. -1.
       -5    1    3    3    0  503 -0.10194694897E+03  0.76284679922E+02 -0.39420454320E+02  0.13337389179E+03  0.46999998093E+01 0.  1.
       13    1    4    4    0    0  0.36472615060E+02  0.69130144398E+02 -0.54106635510E+02  0.95061856283E+02  0.00000000000E+00 0. -1.
      -13    1    6    6    0    0  0.67347282204E+02 -0.28947343244E+02  0.54481090538E+01  0.73507054038E+02  0.00000000000E+00 0.  1.
       14    1    6    6    0    0 -0.26862534416E+02 -0.10378968223E+02  0.67670184435E+01  0.29582279750E+02  0.00000000000E+00 0. -1.
      -14    1    4    4    0    0 -0.23993882003E+02  0.95284840287E+01 -0.59125596707E+02  0.64516157414E+02  0.00000000000E+00 0.  1.
</event>
<event>
12   0  0.9284400E-04  0.2417649E+03  0.7546771E-02  0.1118708E+00
       21   -1    0    0  503  502  0.00000000000E+00  0.00000000000E+00  0.47228954169E+02  0.47228954169E+02  0.00000000000E+00 0. -1.
       21   -1    0    0  501  503  0.00000000000E+00  0.00000000000E+00 -0.13113778034E+04  0.13113778034E+04  0.00000000000E+00 0. -1.
        6    2    1    2  501    0  0.11388033841E+03  0.12476506523E+03 -0.79670668792E+03  0.83258141906E+03  0.17296016828E+03 0.  0.
       24    2    3    3    0    0  0.11616689619E+02  0.86998856598E+01 -0.37789829938E+03  0.38609341689E+03  0.77784101234E+02 0.  0.
       -6    2    1    2    0  502 -0.11388033841E+03 -0.12476506523E+03 -0.46744216133E+03  0.52602533853E+03  0.17223655130E+03 0.  0.
      -24    2    5    5    0    0 -0.92443853888E+02 -0.40292875872E+02 -0.15412649343E+03  0.20078101283E+03  0.79929075879E+02 0.  0.
        5    1    3    3  501    0  0.10226364879E+03  0.11606517957E+03 -0.41880838855E+03  0.44648800218E+03  0.46999998093E+01 0. -1.
       -5    1    5    5    0  502 -0.21436484523E+02 -0.84472189355E+02 -0.31331566791E+03  0.32524432570E+03  0.46999998093E+01 0.  1.
       13    1    6    6    0    0  0.32055431003E+01 -0.31625210094E+02 -0.28858771940E+02  0.42933182248E+02  0.00000000000E+00 0. -1.
      -13    1    4    4    0    0 -0.12072570824E+02 -0.30767761671E+02 -0.16430194631E+03  0.16759335215E+03  0.00000000000E+00 0.  1.
       14    1    4    4    0    0  0.23689260443E+02  0.39467647331E+02 -0.21359635307E+03  0.21850006474E+03  0.00000000000E+00 0. -1.
      -14    1    6    6    0    0 -0.95649396988E+02 -0.86676657780E+01 -0.12526772149E+03  0.15784783059E+03  0.00000000000E+00 0.  1.
</event>
<event>
12   0  0.9284400E-04  0.2038373E+03  0.7546771E-02  0.1149512E+00
       21   -1    0    0  503  502  0.00000000000E+00  0.00000000000E+00  0.14161073741E+03  0.14161073741E+03  0.00000000000E+00 0.  1.
       21   -1    0    0  501  503  0.00000000000E+00  0.00000000000E+00 -0.28225858234E+03  0.28225858234E+03  0.00000000000E+00 0.  1.
        6    2    1    2  501    0 -0.91770892587E+01 -0.80761640147E+02 -0.31118230892E+02  0.19246836861E+03  0.17166556770E+03 0.  0.
       24    2    3    3    0    0 -0.41795692729E+02 -0.10298973353E+03 -0.52988204162E+02  0.14709825558E+03  0.80475970760E+02 0.  0.
       -6    2    1    2    0  502  0.91770892587E+01  0.80761640147E+02 -0.10952961404E+03  0.23140095114E+03  0.18693047464E+03 0.  0.
      -24    2    5    5    0    0 -0.64031997149E+02  0.51529066779E+02 -0.39496801385E+02  0.12585096997E+03  0.86735966821E+02 0.  0.
        5    1    3    3  501    0  0.32618603470E+02  0.22228093383E+02  0.21869973270E+02  0.45370113035E+02  0.46999998093E+01 0. -1.
       -5    1    5    5    0  502  0.73209086407E+02  0.29232573368E+02 -0.70032812658E+02  0.10554998117E+03  0.46999998093E+01 0.  1.
       13    1    6    6    0    0 -0.22274747759E+02  0.21473511912E+02  0.27488934780E+02  0.41387409159E+02  0.00000000000E+00 0. -1.
      -13    1    4    4    0    0 -0.42381339249E+02 -0.78133027808E+02 -0.73126759735E+02  0.11510200233E+03  0.00000000000E+00 0.  1.
       14    1    4    4    0    0  0.58564651981E+00 -0.24856705722E+02  0.20138555573E+02  0.31996253246E+02  0.00000000000E+00 0. -1.
      -14    1    6    6    0    0 -0.41757249390E+02  0.30055554868E+02 -0.66985736166E+02  0.84463560810E+02  0.00000000000E+00 0.  1.
</event>
<event>
12   0  0.9284400E-04  0.1948568E+03  0.7546771E-02  0.1154480E+00
       21   -1    0    0  501  502  0.00000000000E+00  0.00000000000E+00  0.45790735250E+03  0.45790735250E+03  0.00000000000E+00 0.  1.
       21   -1    0    0  502  503  0.00000000000E+00  0.00000000000E+00 -0.92714081944E+02  0.92714081944E+02  0.00000000000E+00 0.  1.
       -6    2    1    2    0  503  0.32963687613E+02  0.82074611930E+02  0.90880138944E+02  0.21500784549E+03  0.17362697758E+03 0.  0.
      -24    2    3    3    0    0  0.54015502770E+02  0.11528534339E+03  0.89721921712E+02  0.17539013392E+03  0.80642984191E+02 0.  0.
        6    2    1    2  501    0 -0.32963687613E+02 -0.82074611930E+02  0.27431313161E+03  0.33561358895E+03  0.17194749283E+03 0.  0.
       24    2    5    5    0    0 -0.67322909985E+02 -0.11423252255E+02  0.10714798685E+03  0.15084766566E+03  0.81310898714E+02 0.  0.
        5    1    5    5  501    0  0.34359222372E+02 -0.70651359675E+02  0.16716514477E+03  0.18476592329E+03  0.46999998093E+01 0. -1.
       -5    1    3    3    0  503 -0.21051815157E+02 -0.33210731459E+02  0.11582172322E+01  0.39617711580E+02  0.46999998093E+01 0.  1.
       13    1    4    4    0    0  0.76453898616E+01 -0.11681045830E+02  0.16441301077E+01  0.14057097198E+02  0.00000000000E+00 0. -1.
      -13    1    6    6    0    0  0.15787379584E+02 -0.14687294769E+02  0.33004325062E+02  0.39423894462E+02  0.00000000000E+00 0.  1.
       14    1    6    6    0    0 -0.83110289569E+02  0.32640425134E+01  0.74143661786E+02  0.11142377120E+03  0.00000000000E+00 0. -1.
      -14    1    4    4    0    0  0.46370112908E+02  0.12696638922E+03  0.88077791604E+02  0.16133303672E+03  0.00000000000E+00 0.  1.
</event>
<event>
12   0  0.9284400E-04  0.2252994E+03  0.7546771E-02  0.1130071E+00
       21   -1    0    0  501  502  0.00000000000E+00  0.00000000000E+00  0.27828079096E+03  0.27828079096E+03  0.00000000000E+00 0. -1.
       21   -1    0    0  502  503  0.00000000000E+00  0.00000000000E+00 -0.20128690648E+03  0.20128690648E+03  0.00000000000E+00 0. -1.
       -6    2    1    2    0  503 -0.11981390387E+03 -0.78372870904E+02 -0.35588965461E+02  0.22809297381E+03  0.17396020172E+03 0.  0.
      -24    2    3    3    0    0 -0.14105470091E+03 -0.33931783255E+02 -0.55686670303E+02  0.17468708023E+03  0.79792080986E+02 0.  0.
        6    2    1    2  501    0  0.11981390387E+03  0.78372870904E+02  0.11258284994E+03  0.25147472363E+03  0.17339827009E+03 0.  0.
       24    2    5    5    0    0  0.12844755606E+03  0.37128782708E+02  0.29983436482E+02  0.15862878746E+03  0.79917235837E+02 0.  0.
        5    1    5    5  501    0 -0.86336521916E+01  0.41244088197E+02  0.82599413459E+02  0.92845936170E+02  0.46999998093E+01 0. -1.
       -5    1    3    3    0  503  0.21240797036E+02 -0.44441087649E+02  0.20097704842E+02  0.53405893572E+02  0.46999998093E+01 0.  1.
       13    1    4    4    0    0 -0.11585289180E+03 -0.58886509445E+02 -0.46744587869E+02  0.13811071656E+03  0.00000000000E+00 0. -1.
      -13    1    6    6    0    0  0.77264506755E+02 -0.11865632996E+01  0.49514646035E+02  0.91776424579E+02  0.00000000000E+00 0.  1.
       14    1    6    6    0    0  0.51183049308E+02  0.38315346007E+02 -0.19531209553E+02  0.66852362880E+02  0.00000000000E+00 0. -1.
      -14    1    4    4    0    0 -0.25201809108E+02  0.24954726190E+02 -0.89420824338E+01  0.36576363676E+02  0.00000000000E+00 0.  1.
</event>
<event>
12   0  0.9284400E-04  0.1848821E+03  0.7546771E-02  0.1163160E+00
       -1   -1    0    0    0  501  0.00000000000E+00  0.00000000000E+00  0.74421210422E+02  0.74421210422E+02  0.00000000000E+00 0.  1.
        1   -1    0    0  502    0  0.00000000000E+00  0.00000000000E+00 -0.19029529644E+04  0.19029529644E+04  0.00000000000E+00 0. -1.
        6    2    1    2  502    0 -0.15733166521E+02 -0.62768843897E+02 -0.17757949258E+04  0.17854265998E+04  0.17353116243E+03 0.  0.
       24    2    3    3    0    0  0.28863251124E+02  0.21388366370E+02 -0.90362141365E+03  0.90805552558E+03  0.82113511993E+02 0.  0.
       -6    2    1    2    0  501  0.15733166521E+02  0.62768843897E+02 -0.52736828172E+02  0.19194757506E+03  0.17284454933E+03 0.  0.
      -24    2    5    5    0    0  0.41708439810E+02  0.10207753900E+03 -0.29570655927E+02  0.13923467467E+03  0.79702277368E+02 0.  0.
        5    1    3    3  502    0 -0.44596417645E+02 -0.84157210267E+02 -0.87217351216E+03  0.87737107418E+03  0.46999998093E+01 0. -1.
       -5    1    5    5    0  501 -0.25975273289E+02 -0.39308695102E+02 -0.23166172245E+02  0.52712900392E+02  0.46999998093E+01 0.  1.
       13    1    6    6    0    0  0.29515029053E+02  0.25619171600E+00 -0.21208198628E+02  0.36345429744E+02  0.00000000000E+00 0. -1.
      -13    1    4    4    0    0 -0.19313723391E+02  0.80633812705E+01 -0.73260546218E+02  0.76191506488E+02  0.00000000000E+00 0.  1.
       14    1    4    4    0    0  0.48176974515E+02  0.13324985099E+02 -0.83036086743E+03  0.83186401909E+03  0.00000000000E+00 0. -1.
      -14    1    6    6    0    0  0.12193410757E+02  0.10182134728E+03 -0.83624572986E+01  0.10288924492E+03  0.00000000000E+00 0.  1.
</event>
<event>
12   0  0.9284400E-04  0.1848612E+03  0.7546771E-02  0.1163180E+00
        2   -1    0    0  502    0  0.00000000000E+00  0.00000000000E+00  0.16121993168E+03  0.16121993168E+03  0.00000000000E+00 0. -1.
       -2   -1    0    0    0  501  0.00000000000E+00  0.00000000000E+00 -0.21666732001E+03  0.21666732001E+03  0.00000000000E+00 0.  1.
        6    2    1    2  502    0 -0.53744031282E+02  0.37163791746E+02  0.45100457292E-01  0.18521190347E+03  0.17330285294E+03 0.  0.
       24    2    3    3    0    0 -0.41519065504E+02  0.92481381054E+02  0.53784879220E+01  0.12811531430E+03  0.78153483497E+02 0.  0.
       -6    2    1    2    0  501  0.53744031282E+02 -0.37163791746E+02 -0.55492488784E+02  0.19267534822E+03  0.17255377476E+03 0.  0.
      -24    2    5    5    0    0  0.91439645435E+02 -0.31064815135E+02 -0.78261232689E+02  0.14796894443E+03  0.80273012143E+02 0.  0.
        5    1    3    3  502    0 -0.12224965778E+02 -0.55317589308E+02 -0.53333874647E+01  0.57096589173E+02  0.46999998093E+01 0. -1.
       -5    1    5    5    0  501 -0.37695614153E+02 -0.60989766119E+01  0.22768743904E+02  0.44706403783E+02  0.46999998093E+01 0.  1.
       13    1    6    6    0    0  0.29767415645E+02  0.19460501742E+02 -0.53951842193E+02  0.64618971194E+02  0.00000000000E+00 0. -1.
      -13    1    4    4    0    0  0.81435716648E+01  0.60685775830E+02  0.24754817629E+02  0.66044546659E+02  0.00000000000E+00 0.  1.
       14    1    4    4    0    0 -0.49662637169E+02  0.31795605225E+02 -0.19376329707E+02  0.62070767638E+02  0.00000000000E+00 0. -1.
      -14    1    6    6    0    0  0.61672229791E+02 -0.50525316877E+02 -0.24309390496E+02  0.83349973240E+02  0.00000000000E+00 0.  1.
</event>
<event>
12   0  0.9284400E-04  0.2336628E+03  0.7546771E-02  0.1124088E+00
        2   -1    0    0  502    0  0.00000000000E+00  0.00000000000E+00  0.15115064667E+03  0.15115064667E+03  0.00000000000E+00 0. -1.
       -2   -1    0    0    0  501  0.00000000000E+00  0.00000000000E+00 -0.57123958432E+03  0.57123958432E+03  0.00000000000E+00 0.  1.
        6    2    1    2  502    0 -0.15353923862E+03  0.33954699298E+02 -0.42951896052E+03  0.48935708901E+03  0.17394425462E+03 0.  0.
       24    2    3    3    0    0 -0.52803169089E+02 -0.34545670886E+00 -0.32994901721E+03  0.34354721274E+03  0.79812526730E+02 0.  0.
       -6    2    1    2    0  501  0.15353923862E+03 -0.33954699298E+02  0.94300228698E+01  0.23303314198E+03  0.17172157852E+03 0.  0.
      -24    2    5    5    0    0  0.82262797567E+01  0.14689799303E+02 -0.11915019125E+02  0.78243465087E+02  0.75475891952E+02 0.  0.
        5    1    3    3  502    0 -0.10073606953E+03  0.34300156006E+02 -0.99569943316E+02  0.14580987627E+03  0.46999998093E+01 0. -1.
       -5    1    5    5    0  501  0.14531295887E+03 -0.48644498600E+02  0.21345041994E+02  0.15478967690E+03  0.46999998093E+01 0.  1.
       13    1    6    6    0    0  0.17154663708E+01  0.31673977596E+02  0.22791465782E+02  0.39059372679E+02  0.00000000000E+00 0. -1.
      -13    1    4    4    0    0  0.38295301828E+01  0.30779724181E+02 -0.10139140153E+03  0.10602958562E+03  0.00000000000E+00 0.  1.
       14    1    4    4    0    0 -0.56632699272E+02 -0.31125180890E+02 -0.22855761568E+03  0.23751762713E+03  0.00000000000E+00 0. -1.
      -14    1    6    6    0    0  0.65108133859E+01 -0.16984178293E+02 -0.34706484907E+02  0.39184092408E+02  0.00000000000E+00 0.  1.
</event>
<event>
10   0  0.9284400E-04  0.1869167E+03  0.7546771E-02  0.1167481E+00
       21   -1    0    0  503  502  0.00000000000E+00  0.00000000000E+00  0.84904182275E+02  0.84904182275E+02  0.00000000000E+00 0.  1.
       21   -1    0    0  501  503  0.00000000000E+00  0.00000000000E+00 -0.41024918368E+03  0.41024918368E+03  0.00000000000E+00 0.  1.
       -6    2    1    2    0  502 -0.60854237705E+02  0.53118288348E+00 -0.84987474057E+02  0.20533072477E+03  0.17673232695E+03 0.  0.
      -24    2    3    3    0    0 -0.34148905923E+02 -0.39464784795E+02  0.90433752319E+01  0.99610609412E+02  0.84361566232E+02 0.  0.
        5    1    1    2  501    0  0.51359160971E+01 -0.24749910022E+02  0.12265921806E+02  0.28486461981E+02  0.46999998093E+01 0. -1.
       -5    1    3    3    0  502 -0.26705331782E+02  0.39995967678E+02 -0.94030849289E+02  0.10572011536E+03  0.46999998093E+01 0.  1.
       13    1    4    4    0    0  0.13873877745E+01  0.25231073345E+02  0.20353942884E+00  0.25270008612E+02  0.00000000000E+00 0. -1.
      -13    1    1    2    0    0  0.37342464259E+02  0.10408201457E+02 -0.10487736485E+03  0.11181257510E+03  0.00000000000E+00 0.  1.
       14    1    1    2    0    0  0.18375857349E+02  0.13810525682E+02 -0.14774608431E+03  0.14952360409E+03  0.00000000000E+00 0. -1.
      -14    1    4    4    0    0 -0.35536293698E+02 -0.64695858140E+02  0.88398358030E+01  0.74340600799E+02  0.00000000000E+00 0.  1.
</event>
<event>
11   0  0.9284400E-04  0.2630898E+03  0.7546771E-02  0.1108643E+00
       21   -1    0    0  501  502  0.00000000000E+00  0.00000000000E+00  0.80723677177E+03  0.80723677177E+03  0.00000000000E+00 0. -1.
       21   -1    0    0  502  503  0.00000000000E+00  0.00000000000E+00 -0.33307815707E+03  0.33307815707E+03  0.00000000000E+00 0.  1.
      -24    2    1    2    0    0 -0.92194046882E+02  0.98046510865E+02 -0.10800434930E+03  0.19041415135E+03  0.80496888102E+02 0.  0.
        6    2    1    2  501    0  0.13628355800E+03 -0.14000007777E+03  0.73748890246E+03  0.78301092183E+03  0.17619021683E+03 0.  0.
       24    2    4    4    0    0  0.48147451466E+02 -0.14403153369E+03  0.43648197350E+03  0.46930486963E+03  0.81653460942E+02 0.  0.
        5    1    4    4  501    0  0.88136106534E+02  0.40314559280E+01  0.30100692895E+03  0.31370605220E+03  0.46999998093E+01 0. -1.
       -5    1    1    2    0  503 -0.44089511117E+02  0.41953566902E+02 -0.15532593845E+03  0.16688985566E+03  0.46999998093E+01 0.  1.
       13    1    3    3    0    0  0.13984030386E+02  0.49149046253E+01 -0.16233641732E+02  0.21982732250E+02  0.00000000000E+00 0. -1.
      -13    1    5    5    0    0 -0.15228032683E+02 -0.23898343287E+02  0.14482976741E+03  0.14757603234E+03  0.00000000000E+00 0.  1.
       14    1    5    5    0    0  0.63375484149E+02 -0.12013319041E+03  0.29165220609E+03  0.32172883729E+03  0.00000000000E+00 0. -1.
      -14    1    3    3    0    0 -0.10617807727E+03  0.93131606239E+02 -0.91770707568E+02  0.16843141910E+03  0.00000000000E+00 0.  1.
</event>
<event>
12   0  0.9284400E-04  0.3626336E+03  0.7546771E-02  0.1057546E+00
        2   -1    0    0  502    0  0.00000000000E+00  0.00000000000E+00  0.13022554960E+04  0.13022554960E+04  0.00000000000E+00 0. -1.
       -2   -1    0    0    0  501  0.00000000000E+00  0.00000000000E+00 -0.38942649406E+03  0.38942649406E+03  0.00000000000E+00 0.  1.
        6    2    1    2  502    0  0.31527062976E+03 -0.50883415956E+02  0.11836658826E+04  0.12373434413E+04  0.16723988184E+03 0.  0.
       24    2    3    3    0    0  0.92841027980E+02  0.49151151985E+01  0.54332031492E+03  0.55715748152E+03  0.81141110284E+02 0.  0.
       -6    2    1    2    0  501 -0.31527062976E+03  0.50883415956E+02 -0.27083688067E+03  0.45433854876E+03  0.17631281561E+03 0.  0.
      -24    2    5    5    0    0 -0.31049989863E+03  0.43944965456E+02 -0.28880255984E+03  0.43394841396E+03  0.81012100106E+02 0.  0.
        5    1    3    3  502    0  0.22242960178E+03 -0.55798531154E+02  0.64034556770E+03  0.68018595979E+03  0.46999998093E+01 0. -1.
       -5    1    5    5    0  501 -0.47707311254E+01  0.69384505001E+01  0.17965679174E+02  0.20390134801E+02  0.46999998093E+01 0.  1.
       13    1    6    6    0    0 -0.56666951751E+02  0.23584637049E+01 -0.15833223645E+02  0.58884605312E+02  0.00000000000E+00 0. -1.
      -13    1    4    4    0    0  0.25965272027E+02  0.38081204245E+02  0.26612210639E+03  0.27008396653E+03  0.00000000000E+00 0.  1.
       14    1    4    4    0    0  0.66875755953E+02 -0.33166089047E+02  0.27719820853E+03  0.28707351499E+03  0.00000000000E+00 0. -1.
      -14    1    6    6    0    0 -0.25383294688E+03  0.41586501751E+02 -0.27296933620E+03  0.37506380865E+03  0.00000000000E+00 0.  1.
</event>
<event>
12   0  0.9284400E-04  0.1922914E+03  0.7546771E-02  0.1156793E+00
       21   -1    0    0  501  502  0.00000000000E+00  0.00000000000E+00  0.55402593171E+02  0.55402593171E+02  0.00000000000E+00 0.  1.
       21   -1    0    0  502  503  0.00000000000E+00  0.00000000000E+00 -0.72150044344E+03  0.72150044344E+03  0.00000000000E+00 0.  1.
       -6    2    1    2    0  503 -0.71046594116E+02  0.38731429542E+02 -0.44372727224E+03  0.48292234803E+03  0.17254668911E+03 0.  0.
      -24    2    3    3    0    0  0.23742715588E+02  0.96338484306E+01 -0.13395188936E+03  0.15763084752E+03  0.79043328936E+02 0.  0.
        6    2    1    2  501    0  0.71046594116E+02 -0.38731429542E+02 -0.22237057802E+03  0.29398068858E+03  0.17443689151E+03 0.  0.
       24    2    5    5    0    0  0.28759193724E+02  0.44532917628E+02 -0.10597139643E+03  0.14467551381E+03  0.83010815300E+02 0.  0.
        5    1    5    5  501    0  0.42287400391E+02 -0.83264347170E+02 -0.11639918159E+03  0.14930517477E+03  0.46999998093E+01 0. -1.
       -5    1    3    3    0  503 -0.94789309704E+02  0.29097581111E+02 -0.30977538289E+03  0.32529150050E+03  0.46999998093E+01 0.  1.
       13    1    4    4    0    0 -0.28354625908E+02 -0.54099806427E+01 -0.46264403556E+02  0.54531162993E+02  0.00000000000E+00 0. -1.
      -13    1    6    6    0    0  0.71794228327E+01 -0.89003954221E+01  0.99903434269E+01  0.15184469456E+02  0.00000000000E+00 0.  1.
       14    1    6    6    0    0  0.21579770892E+02  0.53433313051E+02 -0.11596173986E+03  0.12949104435E+03  0.00000000000E+00 0. -1.
      -14    1    4    4    0    0  0.52097341496E+02  0.15043829073E+02 -0.87687485802E+02  0.10309968453E+03  0.00000000000E+00 0.  1.
</event>
<event>
12   0  0.9284400E-04  0.2494641E+03  0.7546771E-02  0.1114978E+00
       21   -1    0    0  501  502  0.00000000000E+00  0.00000000000E+00  0.18111813444E+03  0.18111813444E+03  0.00000000000E+00 0. -1.
       21   -1    0    0  502  503  0.00000000000E+00  0.00000000000E+00 -0.63645057472E+03  0.63645057472E+03  0.00000000000E+00 0. -1.
        6    2    1    2  501    0  0.14506317587E+03 -0.85602356216E+02  0.52896666489E+02  0.25501062236E+03  0.18401432500E+03 0.  0.
       24    2    3    3    0    0  0.98006926872E+02 -0.72307688233E+02 -0.38847313259E+02  0.15094292043E+03  0.80255167983E+02 0.  0.
       -6    2    1    2    0  503 -0.14506317587E+03  0.85602356216E+02 -0.50822910678E+03  0.56255808680E+03  0.17263744572E+03 0.  0.
      -24    2    5    5    0    0 -0.54547990832E+02 -0.13056544452E+02 -0.29440252305E+03  0.31022799484E+03  0.80141166351E+02 0.  0.
        5    1    3    3  501    0  0.47056249001E+02 -0.13294667983E+02  0.91743979748E+02  0.10406770193E+03  0.46999998093E+01 0. -1.
       -5    1    5    5    0  503 -0.90515185041E+02  0.98658900668E+02 -0.21382658372E+03  0.25233009196E+03  0.46999998093E+01 0.  1.
       13    1    6    6    0    0  0.11827367714E+02 -0.10705994267E+02 -0.11583635730E+02  0.19715109865E+02  0.00000000000E+00 0. -1.
      -13    1    4    4    0    0  0.25018201810E+02 -0.28230577660E+02 -0.52443792712E+02  0.64600521134E+02  0.00000000000E+00 0.  1.
       14    1    4    4    0    0  0.72988725062E+02 -0.44077110573E+02  0.13596479452E+02  0.86342399296E+02  0.00000000000E+00 0. -1.
      -14    1    6    6    0    0 -0.66375358546E+02 -0.23505501853E+01 -0.28281888732E+03  0.29051288497E+03  0.00000000000E+00 0.  1.
</event>
<event>
12   0  0.9284400E-04  0.2042689E+03  0.7546771E-02  0.1146370E+00
       21   -1    0    0  503  502  0.00000000000E+00  0.00000000000E+00  0.10194576396E+04  0.10194576396E+04  0.00000000000E+00 0.  1.
       21   -1    0    0  501  503  0.00000000000E+00  0.00000000000E+00 -0.40795879429E+02  0.40795879429E+02  0.00000000000E+00 0. -1.
        6    2    1    2  501    0 -0.20469642148E+02 -0.10443056546E+03  0.50593897947E+03  0.54528498553E+03  0.17331103614E+03 0.  0.
       24    2    3    3    0    0 -0.67655377769E+02 -0.43435581354E+02  0.39720183563E+03  0.41189556249E+03  0.73652944929E+02 0.  0.
       -6    2    1    2    0  502  0.20469642148E+02  0.10443056546E+03  0.47272278074E+03  0.51496853354E+03  0.17435886514E+03 0.  0.
      -24    2    5    5    0    0 -0.15827695566E+02  0.46479119741E+02  0.41469218303E+03  0.42516036545E+03  0.79880568148E+02 0.  0.
        5    1    3    3  501    0  0.47185735622E+02 -0.60994984107E+02  0.10873714384E+03  0.13338942305E+03  0.46999998093E+01 0. -1.
       -5    1    5    5    0  502  0.36297337714E+02  0.57951445719E+02  0.58030597715E+02  0.89808168089E+02  0.46999998093E+01 0.  1.
       13    1    6    6    0    0  0.27267694559E+02  0.65840749058E+01  0.68478588716E+02  0.74001312971E+02  0.00000000000E+00 0. -1.
      -13    1    4    4    0    0 -0.18260452458E+02 -0.48557156467E+02  0.12732435113E+03  0.13748720653E+03  0.00000000000E+00 0.  1.
       14    1    4    4    0    0 -0.49394925311E+02  0.51215751126E+01  0.26987748450E+03  0.27440835596E+03  0.00000000000E+00 0. -1.
      -14    1    6    6    0    0 -0.43095390125E+02  0.39895044836E+02  0.34621359431E+03  0.35115905248E+03  0.00000000000E+00 0.  1.
</event>
<event>
11   0  0.9284400E-04  0.1826672E+03  0.7546771E-02  0.1165982E+00
       21   -1    0    0  503  502  0.00000000000E+00  0.00000000000E+00  0.43637906104E+03  0.43637906104E+03  0.00000000000E+00 0. -1.
       21   -1    0    0  501  503  0.00000000000E+00  0.00000000000E+00 -0.84818385146E+02  0.84818385146E+02  0.00000000000E+00 0. -1.
        6    2    1    2  501    0 -0.32679561821E+02 -0.46155061175E+02  0.26228722843E+03  0.31788231047E+03  0.17045917305E+03 0.  0.
       -6    2    1    2    0  502  0.32679561821E+02  0.46155061175E+02  0.89273447470E+02  0.20331513572E+03  0.17369240789E+03 0.  0.
      -24    2    4    4    0    0  0.38334475316E+02 -0.39373255603E+02  0.59991591324E+02  0.11261459485E+03  0.77867006421E+02 0.  0.
        5    1    3    3  501    0 -0.27168710085E+02 -0.15372943309E+02  0.38412401224E+01  0.31801121325E+02  0.46999998093E+01 0. -1.
       -5    1    4    4    0  502 -0.56549134951E+01  0.85528316777E+02  0.29281856146E+02  0.90700540875E+02  0.46999998093E+01 0.  1.
       13    1    5    5    0    0  0.60457891232E+02 -0.16096527673E+02  0.33401732174E+02  0.70922003127E+02  0.00000000000E+00 0. -1.
      -13    1    3    3    0    0 -0.18148072315E+02 -0.65685084229E+02  0.86212843548E+02  0.10989329921E+03  0.00000000000E+00 0.  1.
       14    1    3    3    0    0  0.12637220579E+02  0.34902966363E+02  0.17223314476E+03  0.17618788993E+03  0.00000000000E+00 0. -1.
      -14    1    5    5    0    0 -0.22123415916E+02 -0.23276727929E+02  0.26589859150E+02  0.41692591722E+02  0.00000000000E+00 0.  1.
</event>
<event>
12   0  0.9284400E-04  0.2278991E+03  0.7546771E-02  0.1130798E+00
       21   -1    0    0  503  502  0.00000000000E+00  0.00000000000E+00  0.21085882661E+03  0.21085882661E+03  0.00000000000E+00 0.  1.
       21   -1    0    0  501  503  0.00000000000E+00  0.00000000000E+00 -0.24483130456E+03  0.24483130456E+03  0.00000000000E+00 0.  1.
        6    2    1    2  501    0  0.18728525627E+02  0.12383809201E+03 -0.70761613245E+02  0.22484078977E+03  0.17279914389E+03 0.  0.
       24    2    3    3    0    0  0.30669145735E+02  0.39638118541E+02  0.22168114111E+02  0.98784301770E+02  0.82189634695E+02 0.  0.
       -6    2    1    2    0  502 -0.18728525627E+02 -0.12383809201E+03  0.36789135300E+02  0.23084934140E+03  0.19039786565E+03 0.  0.
      -24    2    5    5    0    0  0.45896944698E+02 -0.11932404584E+03  0.58272301396E+02  0.16243556756E+03  0.81516225689E+02 0.  0.
        5    1    3    3  501    0 -0.11940620109E+02  0.84199973472E+02 -0.92929727356E+02  0.12605648800E+03  0.46999998093E+01 0. -1.
       -5    1    5    5    0  502 -0.64625470325E+02 -0.45140461700E+01 -0.21483166097E+02  0.68413773842E+02  0.46999998093E+01 0.  1.
       13    1    6    6    0    0  0.57488148556E+01 -0.36254940638E+02  0.59791718974E+02  0.70160667405E+02  0.00000000000E+00 0. -1.
      -13    1    4    4    0    0 -0.25334720864E+02  0.28207279978E+01  0.18806720176E+02  0.31678025687E+02  0.00000000000E+00 0.  1.
       14    1    4    4    0    0  0.56003866599E+02  0.36817390543E+02  0.33613939346E+01  0.67106276082E+02  0.00000000000E+00 0. -1.
      -14    1    6    6    0    0  0.40148129842E+02 -0.83069105204E+02 -0.15194175774E+01  0.92274900157E+02  0.00000000000E+00 0.  1.
</event>
<event>
12   0  0.9284400E-04  0.2682556E+03  0.7546771E-02  0.1102662E+00
       21   -1    0    0  501  502  0.00000000000E+00  0.00000000000E+00  0.15734843647E+04  0.15734843647E+04  0.00000000000E+00 0. -1.
       21   -1    0    0  502  503  0.00000000000E+00  0.00000000000E+00 -0.83954373766E+02  0.83954373766E+02  0.00000000000E+00 0.  1.
       -6    2    1    2    0  503  0.12716403390E+03  0.16035050062E+03  0.18433272794E+03  0.32548368052E+03  0.17343038122E+03 0.  0.
      -24    2    3    3    0    0  0.11804670230E+03  0.18109875878E+03  0.13189659531E+03  0.26816654560E+03  0.88231513469E+02 0.  0.
        6    2    1    2  501    0 -0.12716403390E+03 -0.16035050062E+03  0.13051972630E+04  0.13319550580E+04  0.16935585756E+03 0.  0.
       24    2    5    5    0    0 -0.33881520894E+02 -0.76854869512E+02  0.91093981509E+03  0.91827139514E+03  0.79726908815E+02 0.  0.
        5    1    5    5  501    0 -0.93282513003E+02 -0.83495631108E+02  0.39425744792E+03  0.41368366282E+03  0.46999998093E+01 0. -1.
       -5    1    3    3    0  503  0.91173315937E+01 -0.20748258158E+02  0.52436132635E+02  0.57317134924E+02  0.46999998093E+01 0. -1.
       13    1    4    4    0    0 -0.52209749279E+01  0.46393415571E+02  0.48859026144E+02  0.67578191921E+02  0.00000000000E+00 0. -1.
      -13    1    6    6    0    0 -0.14346378637E+02 -0.35088613673E+01  0.24640007474E+02  0.28727350320E+02  0.00000000000E+00 0.  1.
       14    1    6    6    0    0 -0.19535142258E+02 -0.73346008145E+02  0.88629980761E+03  0.88954404482E+03  0.00000000000E+00 0. -1.
      -14    1    4    4    0    0  0.12326767723E+03  0.13470534321E+03  0.83037569163E+02  0.20058835368E+03  0.00000000000E+00 0.  1.
</event>
<event>
12   0  0.9284400E-04  0.2099384E+03  0.7546771E-02  0.1141813E+00
       21   -1    0    0  503  502  0.00000000000E+00  0.00000000000E+00  0.10538923937E+04  0.10538923937E+04  0.00000000000E+00 0. -1.
       21   -1    0    0  501  503  0.00000000000E+00  0.00000000000E+00 -0.49449136390E+02  0.49449136390E+02  0.00000000000E+00 0.  1.
        6    2    1    2  501    0  0.11233837607E+03 -0.36929288118E+02  0.28374114449E+03  0.35296343630E+03  0.17346604056E+03 0.  0.
       24    2    3    3    0    0  0.10591446081E+03 -0.15367880293E+02  0.29721980977E+03  0.32631901079E+03  0.81795089888E+02 0.  0.
       -6    2    1    2    0  502 -0.11233837607E+03  0.36929288118E+02  0.72070211279E+03  0.75037809376E+03  0.17225581315E+03 0.  0.
      -24    2    5    5    0    0 -0.15357711894E+03  0.29404840261E+02  0.59235061712E+03  0.61527277312E+03  0.56839736469E+02 0.  0.
        5    1    3    3  501    0  0.64239152588E+01 -0.21561407825E+02 -0.13478665279E+02  0.26644425507E+02  0.46999998093E+01 0. -1.
       -5    1    5    5    0  502  0.41238742870E+02  0.75244478569E+01  0.12835149567E+03  0.13510532065E+03  0.46999998093E+01 0.  1.
       13    1    6    6    0    0 -0.78946674320E+02 -0.76554067509E+01  0.35399452921E+03  0.36277170417E+03  0.00000000000E+00 0. -1.
      -13    1    4    4    0    0  0.13593955740E+02  0.19142282625E+02  0.16221249144E+02  0.28536845315E+02  0.00000000000E+00 0.  1.
       14    1    4    4    0    0  0.92320505070E+02 -0.34510162917E+02  0.28099856063E+03  0.29778216547E+03  0.00000000000E+00 0. -1.
      -14    1    6    6    0    0 -0.74630444619E+02  0.37060247012E+02  0.23835608791E+03  0.25250106894E+03  0.00000000000E+00 0.  1.
</event>
<event>
12   0  0.9284400E-04  0.1997613E+03  0.7546771E-02  0.1150020E+00
       21   -1    0    0  501  502  0.00000000000E+00  0.00000000000E+00  0.15216552546E+03  0.15216552546E+03  0.00000000000E+00 0.  1.
       21   -1    0    0  502  503  0.00000000000E+00  0.00000000000E+00 -0.26293896476E+03  0.26293896476E+03  0.00000000000E+00 0.  1.
        6    2    1    2  501    0  0.13784058263E+02 -0.98731880355E+02 -0.69392689478E+02  0.21147088299E+03  0.17310864952E+03 0.  0.
       24    2    3    3    0    0  0.64612119518E+02 -0.87041619649E+02 -0.14440024003E+02  0.13556278430E+03  0.80111076969E+02 0.  0.
       -6    2    1    2    0  503 -0.13784058263E+02  0.98731880355E+02 -0.41380749822E+02  0.20363360722E+03  0.17267395598E+03 0.  0.
      -24    2    5    5    0    0 -0.76094228334E+02  0.41274599592E+02 -0.50451738142E+02  0.11826224648E+03  0.62822423581E+02 0.  0.
        5    1    3    3  501    0 -0.50828061255E+02 -0.11690260707E+02 -0.54952665476E+02  0.75908098695E+02  0.46999998093E+01 0. -1.
       -5    1    5    5    0  503  0.62310170071E+02  0.57457280764E+02  0.90709883199E+01  0.85371360738E+02  0.46999998093E+01 0.  1.
       13    1    6    6    0    0 -0.32114986949E+02  0.16315110258E+02 -0.56839087266E+02  0.67292176742E+02  0.00000000000E+00 0. -1.
      -13    1    4    4    0    0  0.62258521526E+01 -0.38961395746E+02  0.28422295002E+02  0.48626931290E+02  0.00000000000E+00 0.  1.
       14    1    4    4    0    0  0.58386267365E+02 -0.48080223903E+02 -0.42862319005E+02  0.86935853006E+02  0.00000000000E+00 0. -1.
      -14    1    6    6    0    0 -0.43979241385E+02  0.24959489334E+02  0.63873491246E+01  0.50970069741E+02  0.00000000000E+00 0.  1.
</event>
<event>
12   0  0.9284400E-04  0.1988039E+03  0.7546771E-02  0.1151067E+00
       21   -1    0    0  503  502  0.00000000000E+00  0.00000000000E+00  0.78731071323E+02  0.78731071323E+02  0.00000000000E+00 0.  1.
       21   -1    0    0  501  503  0.00000000000E+00  0.00000000000E+00 -0.50300053506E+03  0.50300053506E+03  0.00000000000E+00 0.  1.
        6    2    1    2  501    0  0.51154681042E+02  0.83808856364E+02 -0.18316815017E+03  0.26923708978E+03  0.17116458009E+03 0.  0.
       24    2    3    3    0    0  0.94580343087E+01  0.11109242584E+03 -0.16457432290E+03  0.21584398233E+03  0.84100745871E+02 0.  0.
       -6    2    1    2    0  502 -0.51154681042E+02 -0.83808856364E+02 -0.24110131356E+03  0.31249451660E+03  0.17286484231E+03 0.  0.
      -24    2    5    5    0    0 -0.39256611460E+02 -0.41929357859E+02 -0.24950613875E+03  0.26790541996E+03  0.78872353668E+02 0.  0.
        5    1    3    3  501    0  0.41696646733E+02 -0.27283569480E+02 -0.18593827266E+02  0.53393107448E+02  0.46999998093E+01 0. -1.
       -5    1    5    5    0  502 -0.11898069582E+02 -0.41879498504E+02  0.84048251907E+01  0.44589096643E+02  0.46999998093E+01 0.  1.
       13    1    6    6    0    0 -0.38006914982E+02  0.14642169924E+02 -0.11408917776E+03  0.12114148426E+03  0.00000000000E+00 0. -1.
      -13    1    4    4    0    0 -0.30827348116E+02  0.82396097445E+02 -0.86190066225E+02  0.12315912383E+03  0.00000000000E+00 0.  1.
       14    1    4    4    0    0  0.40285382424E+02  0.28696328399E+02 -0.78384256677E+02  0.92684858502E+02  0.00000000000E+00 0. -1.
      -14    1    6    6    0    0 -0.12496964782E+01 -0.56571527783E+02 -0.13541696099E+03  0.14676393570E+03  0.00000000000E+00 0.  1.
</event>
<event>
12   0  0.9284400E-04  0.2658443E+03  0.7546771E-02  0.1103703E+00
       21   -1    0    0  503  502  0.00000000000E+00  0.00000000000E+00  0.56351833102E+03  0.56351833102E+03  0.00000000000E+00 0. -1.
       21   -1    0    0  501  503  0.00000000000E+00  0.00000000000E+00 -0.69002159743E+03  0.69002159743E+03  0.00000000000E+00 0. -1.
        6    2    1    2  501    0 -0.16903723176E+03  0.11050282903E+03 -0.63024678888E+03  0.68402060543E+03  0.17288352385E+03 0.  0.
       24    2    3    3    0    0 -0.10507378513E+03  0.13647176872E+03 -0.38846307633E+03  0.43253072097E+03  0.80710711385E+02 0.  0.
       -6    2    1    2    0  502  0.16903723176E+03 -0.11050282903E+03  0.50374352247E+03  0.56951932302E+03  0.17265648533E+03 0.  0.
      -24    2    5    5    0    0  0.15020840107E+03 -0.54798169579E+02  0.46653409731E+03  0.49977575508E+03  0.80971218835E+02 0.  0.
        5    1    3    3  501    0 -0.63963446624E+02 -0.25968939694E+02 -0.24178371255E+03  0.25148988446E+03  0.46999998093E+01 0. -1.
       -5    1    5    5    0  502  0.18828830688E+02 -0.55704659452E+02  0.37209425159E+02  0.69743567937E+02  0.46999998093E+01 0.  1.
       13    1    6    6    0    0  0.12271732806E+03 -0.50449696887E+02  0.44564050633E+03  0.46497330612E+03  0.00000000000E+00 0. -1.
      -13    1    4    4    0    0 -0.50249835159E+02  0.89714659311E+02 -0.30705064394E+03  0.32381146362E+03  0.00000000000E+00 0.  1.
       14    1    4    4    0    0 -0.54823949972E+02  0.46757109414E+02 -0.81412432392E+02  0.10871925735E+03  0.00000000000E+00 0. -1.
      -14    1    6    6    0    0  0.27491073011E+02 -0.43484726928E+01  0.20893590976E+02  0.34802448964E+02  0.00000000000E+00 0.  1.
</event>
<event>
12   0  0.9284400E-04  0.1944275E+03  0.7546771E-02  0.1155009E+00
       21   -1    0    0  503  502  0.00000000000E+00  0.00000000000E+00  0.50842332320E+02  0.50842332320E+02  0.00000000000E+00 0.  1.
       21   -1    0    0  501  503  0.00000000000E+00  0.00000000000E+00 -0.91596045609E+03  0.91596045609E+03  0.00000000000E+00 0.  1.
        6    2    1    2  501    0  0.85453344702E+02 -0.60922388895E+01 -0.64927128820E+03  0.67775752737E+03  0.17453558588E+03 0.  0.
       24    2    3    3    0    0  0.92659956534E+02  0.53037942236E+02 -0.42255750588E+03  0.44330168363E+03  0.81010160308E+02 0.  0.
       -6    2    1    2    0  502 -0.85453344702E+02  0.60922388895E+01 -0.21584683557E+03  0.28904526103E+03  0.17209856770E+03 0.  0.
      -24    2    5    5    0    0  0.14796493312E+02  0.11114706513E+02 -0.54570628806E+02  0.99025893419E+02  0.80533850795E+02 0.  0.
        5    1    3    3  501    0 -0.72066118315E+01 -0.59130181126E+02 -0.22671378232E+03  0.23445584374E+03  0.46999998093E+01 0. -1.
       -5    1    5    5    0  502 -0.10024983801E+03 -0.50224676233E+01 -0.16127620676E+03  0.19001936761E+03  0.46999998093E+01 0.  1.
       13    1    6    6    0    0  0.21660990582E+02  0.55503735045E+01 -0.74201699224E+02  0.77497724655E+02  0.00000000000E+00 0. -1.
      -13    1    4    4    0    0 -0.13543960422E+02  0.67061489353E+01 -0.86977213426E+02  0.88280501544E+02  0.00000000000E+00 0.  1.
       14    1    4    4    0    0  0.10620391696E+03  0.46331793301E+02 -0.33558029246E+03  0.35502118209E+03  0.00000000000E+00 0. -1.
      -14    1    6    6    0    0 -0.68644972696E+01  0.55643330082E+01  0.19631070417E+02  0.21528168764E+02  0.00000000000E+00 0.  1.
</event>
<event>
12   0  0.9284400E-04  0.1929835E+03  0.7546771E-02  0.1156131E+00
       21   -1    0    0  501  502  0.00000000000E+00  0.00000000000E+00  0.73215625514E+03  0.73215625514E+03  0.00000000000E+00 0. -1.
       21   -1    0    0  502  503  0.00000000000E+00  0.00000000000E+00 -0.59363334453E+02  0.59363334453E+02  0.00000000000E+00 0. -1.
       -6    2    1    2    0  503 -0.34353752107E+02 -0.77127681684E+02  0.49068318233E+03  0.52726903002E+03  0.17353323898E+03 0.  0.
      -24    2    3    3    0    0 -0.83789344247E+02 -0.76989898283E+02  0.40712117261E+03  0.43006514007E+03  0.79121911447E+02 0.  0.
        6    2    1    2  501    0  0.34353752107E+02  0.77127681684E+02  0.18210973836E+03  0.26425055957E+03  0.17185907559E+03 0.  0.
       24    2    5    5    0    0  0.18787297260E+02  0.10691297717E+02  0.24786678406E+01  0.72038387417E+02  0.68674005870E+02 0.  0.
        5    1    5    5  501    0  0.15566454847E+02  0.66436383967E+02  0.17963107052E+03  0.19221217216E+03  0.46999998093E+01 0. -1.
       -5    1    3    3    0  503  0.49435592140E+02 -0.13778340027E+00  0.83562009721E+02  0.97203889949E+02  0.46999998093E+01 0.  1.
       13    1    4    4    0    0 -0.84654567242E+02 -0.42080977880E+02  0.21603003835E+03  0.23580963068E+03  0.00000000000E+00 0. -1.
      -13    1    6    6    0    0  0.62372489770E+01  0.27803868810E+02  0.27244852368E+02  0.39423855420E+02  0.00000000000E+00 0.  1.
       14    1    6    6    0    0  0.12550048283E+02 -0.17112571093E+02 -0.24766184528E+02  0.32614531997E+02  0.00000000000E+00 0. -1.
      -14    1    4    4    0    0  0.86522299416E+00 -0.34908920403E+02  0.19109113426E+03  0.19425550939E+03  0.00000000000E+00 0.  1.
</event>
<event>
12   0  0.9284400E-04  0.2565183E+03  0.7546771E-02  0.1109653E+00
       21   -1    0    0  501  502  0.00000000000E+00  0.00000000000E+00  0.67480322321E+02  0.67480322321E+02  0.00000000000E+00 0. -1.
       21   -1    0    0  502  503  0.00000000000E+00  0.00000000000E+00 -0.10173422505E+04  0.10173422505E+04  0.00000000000E+00 0.  1.
       -6    2    1    2    0  503  0.52652333878E+02  0.17996951016E+03 -0.59995080740E+03  0.65248955107E+03  0.17504385194E+03 0.  0.
      -24    2    3    3    0    0  0.27679475748E+02  0.15162005048E+02 -0.26557551166E+03  0.27883986783E+03  0.78900441834E+02 0.  0.
        6    2    1    2  501    0 -0.52652333878E+02 -0.17996951016E+03 -0.34991112074E+03  0.43233302171E+03  0.17120968546E+03 0.  0.
       24    2    5    5    0    0 -0.86299203205E+02 -0.18344096226E+03 -0.28083304102E+03  0.35527438241E+03  0.79085717802E+02 0.  0.
        5    1    5    5  501    0  0.33646869327E+02  0.34714520965E+01 -0.69078079720E+02  0.77058639302E+02  0.46999998093E+01 0. -1.
       -5    1    3    3    0  503  0.24972858130E+02  0.16480750512E+03 -0.33437529574E+03  0.37364968324E+03  0.46999998093E+01 0.  1.
       13    1    4    4    0    0  0.96246497957E+01  0.45555993069E+02 -0.11289199668E+03  0.12211709668E+03  0.00000000000E+00 0. -1.
      -13    1    6    6    0    0 -0.20602854136E+02 -0.38437442015E+02 -0.12547377573E+03  0.13283667770E+03  0.00000000000E+00 0.  1.
       14    1    6    6    0    0 -0.65696349069E+02 -0.14500352025E+03 -0.15535926529E+03  0.22243770471E+03  0.00000000000E+00 0. -1.
      -14    1    4    4    0    0  0.18054825953E+02 -0.30393988021E+02 -0.15268351499E+03  0.15672277115E+03  0.00000000000E+00 0.  1.
</event>
<event>
11   0  0.9284400E-04  0.2829431E+03  0.7546771E-02  0.1096949E+00
       21   -1    0    0  503  502  0.00000000000E+00  0.00000000000E+00  0.56297290272E+03  0.56297290272E+03  0.00000000000E+00 0.  1.
       21   -1    0    0  501  503  0.00000000000E+00  0.00000000000E+00 -0.29482960104E+03  0.29482960104E+03  0.00000000000E+00 0. -1.
       24    2    1    2    0    0 -0.89526115327E+02 -0.20401214222E+03 -0.13119020877E+03  0.27033641267E+03  0.78962178538E+02 0.  0.
       -6    2    1    2    0  502  0.49970559090E+02  0.19009547666E+03  0.45032429672E+03  0.52128100295E+03  0.17409355187E+03 0.  0.
      -24    2    4    4    0    0  0.28932997011E+02  0.29166549059E+02  0.65724745573E+02  0.10381291615E+03  0.69062098721E+02 0.  0.
        5    1    1    2  501    0  0.39555556237E+02  0.13916665553E+02 -0.50990786276E+02  0.66185088144E+02  0.46999998093E+01 0. -1.
       -5    1    4    4    0  502  0.21037562079E+02  0.16092892761E+03  0.38459955114E+03  0.41746808680E+03  0.46999998093E+01 0.  1.
       13    1    5    5    0    0 -0.90364737189E+01  0.33307973164E+02  0.94178032155E+01  0.35773928369E+02  0.00000000000E+00 0. -1.
      -13    1    3    3    0    0 -0.36309028137E+02 -0.13871718723E+02 -0.19448919480E+02  0.43462979345E+02  0.00000000000E+00 0.  1.
       14    1    3    3    0    0 -0.53217087190E+02 -0.19014042349E+03 -0.11174128929E+03  0.22687343332E+03  0.00000000000E+00 0. -1.
      -14    1    5    5    0    0  0.37969470730E+02 -0.41414241049E+01  0.56306942358E+02  0.68038987785E+02  0.00000000000E+00 0.  1.
</event>
<event>
12   0  0.9284400E-04  0.1942282E+03  0.7546771E-02  0.1155047E+00
       21   -1    0    0  501  502  0.00000000000E+00  0.00000000000E+00  0.10619962924E+03  0.10619962924E+03  0.00000000000E+00 0. -1.
       21   -1    0    0  502  503  0.00000000000E+00  0.00000000000E+00 -0.36407227746E+03  0.36407227746E+03  0.00000000000E+00 0. -1.
       -6    2    1    2    0  503  0.11623689756E+02 -0.82725335832E+02 -0.17059251627E+03  0.25733435577E+03  0.17361040493E+03 0.  0.
      -24    2    3    3    0    0  0.22816352228E+02 -0.73367491847E+02 -0.28982167330E+02  0.11489691033E+03  0.80361428505E+02 0.  0.
        6    2    1    2  501    0 -0.11623689756E+02  0.82725335832E+02 -0.87280131950E+02  0.21293755093E+03  0.17534533872E+03 0.  0.
       24    2    5    5    0    0 -0.13463458420E+02  0.18273602425E+02 -0.11541143360E+03  0.14243314810E+03  0.80325670954E+02 0.  0.
        5    1    5    5  501    0  0.18397686640E+01  0.64451733407E+02  0.28131301651E+02  0.70504402832E+02  0.46999998093E+01 0. -1.
       -5    1    3    3    0  503 -0.11192662471E+02 -0.93578439848E+01 -0.14161034894E+03  0.14243744544E+03  0.46999998093E+01 0.  1.
       13    1    4    4    0    0 -0.28946444087E+02 -0.34614156713E+02 -0.30398653710E+01  0.45224741588E+02  0.00000000000E+00 0. -1.
      -13    1    6    6    0    0 -0.53028119925E+01  0.50197180937E+02 -0.72085015616E+02  0.88000717414E+02  0.00000000000E+00 0.  1.
       14    1    6    6    0    0 -0.81606464278E+01 -0.31923578512E+02 -0.43326417984E+02  0.54432430687E+02  0.00000000000E+00 0. -1.
      -14    1    4    4    0    0  0.51762796315E+02 -0.38753335134E+02 -0.25942301959E+02  0.69672168742E+02  0.00000000000E+00 0.  1.
</event>
<event>
12   0  0.9284400E-04  0.2117603E+03  0.7546771E-02  0.1140220E+00
       21   -1    0    0  501  502  0.00000000000E+00  0.00000000000E+00  0.38533148151E+03  0.38533148151E+03  0.00000000000E+00 0. -1.
       21   -1    0    0  502  503  0.00000000000E+00  0.00000000000E+00 -0.38225454669E+03  0.38225454669E+03  0.00000000000E+00 0. -1.
       -6    2    1    2    0  503 -0.30404162964E+02 -0.11812902828E+03 -0.31861313425E+03  0.38256599286E+03  0.17309976640E+03 0.  0.
      -24    2    3    3    0    0 -0.25646516533E+02 -0.13979843296E+03 -0.32053657621E+03  0.35980664476E+03  0.80720376936E+02 0.  0.
        6    2    1    2  501    0  0.30404162964E+02  0.11812902828E+03  0.32169006907E+03  0.38502003534E+03  0.17284978053E+03 0.  0.
       24    2    5    5    0    0  0.18168774336E+02 -0.88571133762E+01  0.11867828160E+03  0.14520539701E+03  0.81188176355E+02 0.  0.
        5    1    5    5  501    0  0.12235388628E+02  0.12698614165E+03  0.20301178746E+03  0.23981463833E+03  0.46999998093E+01 0. -1.
       -5    1    3    3    0  503 -0.47576464309E+01  0.21669404680E+02  0.19234419641E+01  0.22759348100E+02  0.46999998093E+01 0.  1.
       13    1    4    4    0    0 -0.23806180386E+02 -0.13232421697E+03 -0.21226988073E+03  0.25126666092E+03  0.00000000000E+00 0. -1.
      -13    1    6    6    0    0  0.35334416764E+02 -0.98859291473E+01  0.12225388108E+03  0.12764115341E+03  0.00000000000E+00 0.  1.
       14    1    6    6    0    0 -0.17165642428E+02  0.10288157711E+01 -0.35755994809E+01  0.17564243608E+02  0.00000000000E+00 0. -1.
      -14    1    4    4    0    0 -0.18403361471E+01 -0.74742159863E+01 -0.10826669548E+03  0.10853998384E+03  0.00000000000E+00 0.  1.
</event>
<event>
12   0  0.9284400E-04  0.1782062E+03  0.7546771E-02  0.1169558E+00
       21   -1    0    0  503  502  0.00000000000E+00  0.00000000000E+00  0.33137888694E+03  0.33137888694E+03  0.00000000000E+00 0. -1.
       21   -1    0    0  501  503  0.00000000000E+00  0.00000000000E+00 -0.11727077449E+03  0.11727077449E+03  0.00000000000E+00 0. -1.
        6    2    1    2  501    0  0.22152066984E+02  0.36719311986E+02  0.11098558810E+02  0.17851947513E+03  0.17293641331E+03 0.  0.
       24    2    3    3    0    0  0.27713977703E+00  0.55229089955E+02 -0.51138238638E+02  0.10984172563E+03  0.79998475331E+02 0.  0.
       -6    2    1    2    0  502 -0.22152066984E+02 -0.36719311986E+02  0.20300955364E+03  0.27013018631E+03  0.17296940984E+03 0.  0.
      -24    2    5    5    0    0 -0.30486153128E+02 -0.84506256310E+02  0.17741924869E+03  0.21508472560E+03  0.81933732309E+02 0.  0.
        5    1    3    3  501    0  0.21874927207E+02 -0.18509777968E+02  0.62236797449E+02  0.68677749494E+02  0.46999998093E+01 0. -1.
       -5    1    5    5    0  502  0.83340861445E+01  0.47786944324E+02  0.25590304949E+02  0.55045460714E+02  0.46999998093E+01 0.  1.
       13    1    6    6    0    0  0.26200754582E+02 -0.28722876570E+02  0.36797061504E+02  0.53530429799E+02  0.00000000000E+00 0. -1.
      -13    1    4    4    0    0  0.39535471648E+02  0.28901900361E+02 -0.18276663375E+02  0.52272457251E+02  0.00000000000E+00 0.  1.
       14    1    4    4    0    0 -0.39258331871E+02  0.26327189594E+02 -0.32861575264E+02  0.57569268382E+02  0.00000000000E+00 0. -1.
      -14    1    6    6    0    0 -0.56686907710E+02 -0.55783379740E+02  0.14062218719E+03  0.16155429580E+03  0.00000000000E+00 0.  1.
</event>
<event>
12   0  0.9284400E-04  0.2117314E+03  0.7546771E-02  0.1140948E+00
       21   -1    0    0  501  502  0.00000000000E+00  0.00000000000E+00  0.42821586424E+03  0.42821586424E+03  0.00000000000E+00 0. -1.
       21   -1    0    0  502  503  0.00000000000E+00  0.00000000000E+00 -0.36464985662E+03  0.36464985662E+03  0.00000000000E+00 0. -1.
       -6    2    1    2    0  503  0.10183345511E+03  0.53825378921E+02 -0.30404815728E+03  0.37050701652E+03  0.17765962780E+03 0.  0.
      -24    2    3    3    0    0  0.11295772760E+03  0.87560106003E+02 -0.19422175185E+03  0.25498338008E+03  0.82874693586E+02 0.  0.
        6    2    1    2  501    0 -0.10183345511E+03 -0.53825378921E+02  0.36761416490E+03  0.42235870433E+03  0.17314582551E+03 0.  0.
       24    2    5    5    0    0  0.13778823292E+02 -0.35082914380E+01  0.14814590820E+03  0.16920575865E+03  0.80505990847E+02 0.  0.
        5    1    5    5  501    0 -0.11561227840E+03 -0.50317087483E+02  0.21946825670E+03  0.25315294568E+03  0.46999998093E+01 0. -1.
       -5    1    3    3    0  503 -0.11124272483E+02 -0.33734727082E+02 -0.10982640543E+03  0.11552363644E+03  0.46999998093E+01 0.  1.
       13    1    4    4    0    0  0.10894857569E+03  0.37946655541E+02 -0.13231222616E+03  0.17554562371E+03  0.00000000000E+00 0. -1.
      -13    1    6    6    0    0  0.59633356164E+01  0.25107957244E+02  0.96230280939E+01  0.27542214114E+02  0.00000000000E+00 0.  1.
       14    1    6    6    0    0  0.78154876753E+01 -0.28616248682E+02  0.13852288011E+03  0.14166354453E+03  0.00000000000E+00 0. -1.
      -14    1    4    4    0    0  0.40091519055E+01  0.49613450462E+02 -0.61909525694E+02  0.79437756372E+02  0.00000000000E+00 0.  1.
</event>
<event>
12   0  0.9284400E-04  0.1874267E+03  0.7546771E-02  0.1161123E+00
       21   -1    0    0  501  502  0.00000000000E+00  0.00000000000E+00  0.15712219604E+03  0.15712219604E+03  0.00000000000E+00 0. -1.
       21   -1    0    0  502  503  0.00000000000E+00  0.00000000000E+00 -0.24543767533E+03  0.24543767533E+03  0.00000000000E+00 0. -1.
       -6    2    1    2    0  503  0.68103171431E+02  0.13287740179E+02 -0.10660447714E+03  0.21562297792E+03  0.17410958636E+03 0.  0.
      -24    2    3    3    0    0  0.96657554078E+01  0.22259495602E+02  0.99787835624E+01  0.84820949415E+02  0.80660432469E+02 0.  0.
        6    2    1    2  501    0 -0.68103171431E+02 -0.13287740179E+02  0.18288997851E+02  0.18693689344E+03  0.17261607309E+03 0.  0.
       24    2    5    5    0    0  0.11337607811E+02 -0.31907138671E+02  0.48565975308E+02  0.99780110751E+02  0.80316932803E+02 0.  0.
        5    1    5    5  501    0 -0.79440779242E+02  0.18619398492E+02 -0.30276977458E+02  0.87156782691E+02  0.46999998093E+01 0. -1.
       -5    1    3    3    0  503  0.58437416023E+02 -0.89717554230E+01 -0.11658326070E+03  0.13080202851E+03  0.46999998093E+01 0.  1.
       13    1    4    4    0    0  0.43924727706E+01 -0.10907983875E+02  0.38814070496E+02  0.40556257196E+02  0.00000000000E+00 0. -1.
      -13    1    6    6    0    0  0.12190055079E+02 -0.57510200376E+02  0.44745593824E+02  0.73879555743E+02  0.00000000000E+00 0.  1.
       14    1    6    6    0    0 -0.85244726753E+00  0.25603061706E+02  0.38203814842E+01  0.25900555008E+02  0.00000000000E+00 0. -1.
      -14    1    4    4    0    0  0.52732826372E+01  0.33167479477E+02 -0.28835286934E+02  0.44264692219E+02  0.00000000000E+00 0.  1.
</event>
<event>
12   0  0.9284400E-04  0.1909383E+03  0.7546771E-02  0.1160143E+00
       21   -1    0    0  501  502  0.00000000000E+00  0.00000000000E+00  0.26180543494E+03  0.26180543494E+03  0.00000000000E+00 0.  1.
       21   -1    0    0  502  503  0.00000000000E+00  0.00000000000E+00 -0.31019258088E+03  0.31019258088E+03  0.00000000000E+00 0.  1.
       -6    2    1    2    0  503 -0.15304918993E+02  0.48747313142E+02 -0.24098261291E+03  0.30079613710E+03  0.17261273210E+03 0.  0.
      -24    2    3    3    0    0 -0.45822520650E+02  0.87838160592E+02 -0.11411331253E+03  0.16449746600E+03  0.64979399572E+02 0.  0.
        6    2    1    2  501    0  0.15304918993E+02 -0.48747313142E+02  0.19259546697E+03  0.27120187872E+03  0.18397528105E+03 0.  0.
       24    2    5    5    0    0 -0.35678512496E+02  0.30116883690E+02  0.72977663130E+02  0.11905267293E+03  0.81656700147E+02 0.  0.
        5    1    5    5  501    0  0.50983431489E+02 -0.78864196832E+02  0.11961780384E+03  0.15214920579E+03  0.46999998093E+01 0. -1.
       -5    1    3    3    0  503  0.30517601658E+02 -0.39090847450E+02 -0.12686930038E+03  0.13629867110E+03  0.46999998093E+01 0.  1.
       13    1    4    4    0    0 -0.11107506653E+02  0.27926638078E+01  0.62807827099E+01  0.13062308626E+02  0.00000000000E+00 0. -1.
      -13    1    6    6    0    0 -0.35476511051E+02 -0.21891481542E+02  0.37720693946E+02  0.56219841268E+02  0.00000000000E+00 0.  1.
       14    1    6    6    0    0 -0.20200144514E+00  0.52008365232E+02  0.35256969184E+02  0.62832831662E+02  0.00000000000E+00 0. -1.
      -14    1    4    4    0    0 -0.34715013998E+02  0.85045496784E+02 -0.12039409524E+03  0.15143515737E+03  0.00000000000E+00 0.  1.
</event>
<event>
12   0  0.9284400E-04  0.2226741E+03  0.7546771E-02  0.1132014E+00
       21   -1    0    0  501  502  0.00000000000E+00  0.00000000000E+00  0.29618661893E+03  0.29618661893E+03  0.00000000000E+00 0. -1.
       21   -1    0    0  502  503  0.00000000000E+00  0.00000000000E+00 -0.66953252658E+03  0.66953252658E+03  0.00000000000E+00 0. -1.
       -6    2    1    2    0  503 -0.12897203186E+03 -0.55999211632E+02 -0.60495480082E+03  0.64443045247E+03  0.17190288052E+03 0.  0.
      -24    2    3    3    0    0 -0.11643523557E+02 -0.66203129924E+02 -0.30034939116E+03  0.31781654523E+03  0.79241236750E+02 0.  0.
        6    2    1    2  501    0  0.12897203186E+03  0.55999211632E+02  0.23160889317E+03  0.32128869304E+03  0.17266744967E+03 0.  0.
       24    2    5    5    0    0  0.49631518224E+02  0.75927025781E+02  0.69256826630E+02  0.13943073091E+03  0.80101309870E+02 0.  0.
        5    1    5    5  501    0  0.79340513633E+02 -0.19927814149E+02  0.16235206654E+03  0.18185796212E+03  0.46999998093E+01 0. -1.
       -5    1    3    3    0  503 -0.11732850830E+03  0.10203918292E+02 -0.30460540966E+03  0.32661390724E+03  0.46999998093E+01 0. -1.
       13    1    4    4    0    0 -0.57467611282E+01 -0.55602285720E+02 -0.82641845902E+02  0.99771309177E+02  0.00000000000E+00 0. -1.
      -13    1    6    6    0    0  0.28267591197E+02 -0.66384485597E+01 -0.82044986174E+00  0.29048215941E+02  0.00000000000E+00 0.  1.
       14    1    6    6    0    0  0.21363927027E+02  0.82565474341E+02  0.70077276492E+02  0.11038251497E+03  0.00000000000E+00 0. -1.
      -14    1    4    4    0    0 -0.58967624283E+01 -0.10600844204E+02 -0.21770754526E+03  0.21804523606E+03  0.00000000000E+00 0.  1.
</event>
<event>
12   0  0.9284400E-04  0.3156994E+03  0.7546771E-02  0.1078190E+00
       21   -1    0    0  501  502  0.00000000000E+00  0.00000000000E+00  0.12411011324E+04  0.12411011324E+04  0.00000000000E+00 0.  1.
       21   -1    0    0  502  503  0.00000000000E+00  0.00000000000E+00 -0.84495163790E+02  0.84495163790E+02  0.00000000000E+00 0.  1.
       -6    2    1    2    0  503 -0.22945216367E+03 -0.11920540225E+03  0.74122961123E+03  0.80386492249E+03  0.17297182923E+03 0.  0.
      -24    2    3    3    0    0 -0.42487829213E+02 -0.13700289653E+02  0.16443766228E+03  0.18839921790E+03  0.80384121346E+02 0.  0.
        6    2    1    2  501    0  0.22945216367E+03  0.11920540225E+03  0.41537635740E+03  0.52173137372E+03  0.18112946944E+03 0.  0.
       24    2    5    5    0    0  0.19801746387E+03  0.15584441710E+03  0.32127254857E+03  0.41586270700E+03  0.78913511282E+02 0.  0.
        5    1    5    5  501    0  0.31434699797E+02 -0.36639014851E+02  0.94103808826E+02  0.10586866673E+03  0.46999998093E+01 0. -1.
       -5    1    3    3    0  503 -0.18696433445E+03 -0.10550511260E+03  0.57679194896E+03  0.61546570459E+03  0.46999998093E+01 0.  1.
       13    1    4    4    0    0 -0.49897626113E+01  0.32206906559E+02  0.62183414775E+02  0.70206549794E+02  0.00000000000E+00 0. -1.
      -13    1    6    6    0    0  0.92306878741E+02  0.24604498137E+02  0.11774696211E+03  0.15162548690E+03  0.00000000000E+00 0.  1.
       14    1    6    6    0    0  0.10571058513E+03  0.13123991897E+03  0.20352558646E+03  0.26423722009E+03  0.00000000000E+00 0. -1.
      -14    1    4    4    0    0 -0.37498066602E+02 -0.45907196212E+02  0.10225424750E+03  0.11819266811E+03  0.00000000000E+00 0.  1.
</event>
<event>
12   0  0.9284400E-04  0.2753040E+03  0.7546771E-02  0.1098286E+00
       21   -1    0    0  501  502  0.00000000000E+00  0.00000000000E+00  0.32718661222E+03  0.32718661222E+03  0.00000000000E+00 0.  1.
       21   -1    0    0  502  503  0.00000000000E+00  0.00000000000E+00 -0.27458190944E+03  0.27458190944E+03  0.00000000000E+00 0.  1.
       -6    2    1    2    0  503  0.27682477447E+01 -0.21494503139E+03 -0.92707593414E+02  0.29049438130E+03  0.17199784294E+03 0.  0.
      -24    2    3    3    0    0 -0.87275945624E+01 -0.20519516123E+03 -0.12497687754E+03  0.25456930573E+03  0.83696394198E+02 0.  0.
        6    2    1    2  501    0 -0.27682477447E+01  0.21494503139E+03  0.14531229620E+03  0.31127414036E+03  0.17195027571E+03 0.  0.
       24    2    5    5    0    0 -0.35039148923E+02  0.38963087427E+02  0.65695792609E+02  0.11538658765E+03  0.79071254604E+02 0.  0.
        5    1    5    5  501    0  0.32270901178E+02  0.17598194396E+03  0.79616503588E+02  0.19588755271E+03  0.46999998093E+01 0. -1.
       -5    1    3    3    0  503  0.11495842307E+02 -0.97498701571E+01  0.32269284123E+02  0.35925075566E+02  0.46999998093E+01 0.  1.
       13    1    4    4    0    0 -0.19049193217E+02 -0.40399664993E+02  0.42878325500E+01  0.44870816816E+02  0.00000000000E+00 0. -1.
      -13    1    6    6    0    0 -0.46364447452E+02 -0.51255598162E+01  0.19582154519E+02  0.50590454895E+02  0.00000000000E+00 0.  1.
       14    1    6    6    0    0  0.11325298529E+02  0.44088647243E+02  0.46113638090E+02  0.64796132758E+02  0.00000000000E+00 0. -1.
      -14    1    4    4    0    0  0.10321598654E+02 -0.16479549624E+03 -0.12926471009E+03  0.20969848892E+03  0.00000000000E+00 0.  1.
</event>
<event>
12   0  0.9284400E-04  0.1978923E+03  0.7546771E-02  0.1151530E+00
        2   -1    0    0  502    0  0.00000000000E+00  0.00000000000E+00  0.87053226899E+03  0.87053226899E+03  0.00000000000E+00 0.  1.
       -2   -1    0    0    0  501  0.00000000000E+00  0.00000000000E+00 -0.49655040595E+02  0.49655040595E+02  0.00000000000E+00 0. -1.
        6    2    1    2  502    0  0.92374529627E+02  0.25491484627E+02  0.55019697184E+03  0.58446583020E+03  0.17233899539E+03 0.  0.
       24    2    3    3    0    0  0.72129440476E+02  0.49634361536E+02  0.53649861287E+03  0.54978907751E+03  0.82286342167E+02 0.  0.
       -6    2    1    2    0  501 -0.92374529627E+02 -0.25491484627E+02  0.27068025656E+03  0.33572147939E+03  0.17394896068E+03 0.  0.
      -24    2    5    5    0    0 -0.73050178064E+02  0.33822672723E+02  0.92522378268E+02  0.14689902464E+03  0.80861803426E+02 0.  0.
        5    1    3    3  502    0  0.20245089151E+02 -0.24142876908E+02  0.13698358969E+02  0.34676752685E+02  0.46999998093E+01 0. -1.
       -5    1    5    5    0  501 -0.19324351563E+02 -0.59314157350E+02  0.17815787829E+03  0.18882245475E+03  0.46999998093E+01 0.  1.
       13    1    6    6    0    0 -0.79946302637E+02  0.51512920107E+02  0.76452574266E+02  0.12202453997E+03  0.00000000000E+00 0. -1.
      -13    1    4    4    0    0  0.24455810902E+02  0.57370461551E+02  0.19082273204E+03  0.20075550207E+03  0.00000000000E+00 0.  1.
       14    1    4    4    0    0  0.47673629574E+02 -0.77361000155E+01  0.34567588083E+03  0.34903357544E+03  0.00000000000E+00 0. -1.
      -14    1    6    6    0    0  0.68961245732E+01 -0.17690247385E+02  0.16069804002E+02  0.24874484665E+02  0.00000000000E+00 0.  1.
</event>
<event>
12   0  0.9284400E-04  0.2225515E+03  0.7546771E-02  0.1132125E+00
       21   -1    0    0  503  502  0.00000000000E+00  0.00000000000E+00  0.16642324059E+03  0.16642324059E+03  0.00000000000E+00 0.  1.
       21   -1    0    0  501  503  0.00000000000E+00  0.00000000000E+00 -0.36718989539E+03  0.36718989539E+03  0.00000000000E+00 0. -1.
        6    2    1    2  501    0  0.30306925093E+02 -0.13647010498E+03 -0.21718242142E+03  0.31045707027E+03  0.17225791432E+03 0.  0.
       24    2    3    3    0    0  0.35320248726E+02 -0.27010282628E+02 -0.16166101521E+03  0.18752903170E+03  0.83998681842E+02 0.  0.
       -6    2    1    2    0  502 -0.30306925093E+02  0.13647010498E+03  0.16415766621E+02  0.22315606571E+03  0.17316625829E+03 0.  0.
      -24    2    5    5    0    0  0.65054512389E+01  0.43262358016E+02 -0.47817914481E+02  0.10403053977E+03  0.81374736512E+02 0.  0.
        5    1    3    3  501    0 -0.50133236331E+01 -0.10945982235E+03 -0.55521406209E+02  0.12292803858E+03  0.46999998093E+01 0. -1.
       -5    1    5    5    0  502 -0.36812376332E+02  0.93207746961E+02  0.64233681102E+02  0.11912552594E+03  0.46999998093E+01 0.  1.
       13    1    6    6    0    0  0.16113410328E+02 -0.21262037247E+02 -0.91922072870E+01  0.28217244641E+02  0.00000000000E+00 0. -1.
      -13    1    4    4    0    0 -0.27435426972E+02 -0.97115404383E+01 -0.38967904052E+02  0.48636552274E+02  0.00000000000E+00 0.  1.
       14    1    4    4    0    0  0.62755675698E+02 -0.17298742190E+02 -0.12269311116E+03  0.13889247942E+03  0.00000000000E+00 0. -1.
      -14    1    6    6    0    0 -0.96079590896E+01  0.64524395263E+02 -0.38625707194E+02  0.75813295128E+02  0.00000000000E+00 0.  1.
</event>
<event>
12   0  0.9284400E-04  0.5020967E+03  0.7546771E-02  0.1013274E+00
       21   -1    0    0  503  502  0.00000000000E+00  0.00000000000E+00  0.29790421986E+03  0.29790421986E+03  0.00000000000E+00 0. -1.
       21   -1    0    0  501  503  0.00000000000E+00  0.00000000000E+00 -0.18084788601E+04  0.18084788601E+04  0.00000000000E+00 0. -1.
        6    2    1    2  501    0  0.32688704835E+03  0.33866311465E+03 -0.15241673633E+04  0.16047389895E+04  0.17479480957E+03 0.  0.
       24    2    3    3    0    0  0.11751998650E+03  0.19194540629E+03 -0.87459216123E+03  0.90664824634E+03  0.80284543246E+02 0.  0.
       -6    2    1    2    0  502 -0.32688704835E+03 -0.33866311465E+03  0.13592723018E+02  0.50164409051E+03  0.17295717336E+03 0.  0.
      -24    2    5    5    0    0 -0.28289232327E+03 -0.29319572758E+03 -0.38926166854E+02  0.41928425252E+03  0.91061719222E+02 0.  0.
        5    1    3    3  501    0  0.20936706185E+03  0.14671770836E+03 -0.64957520203E+03  0.69809074312E+03  0.46999998093E+01 0. -1.
       -5    1    5    5    0  502 -0.43994725080E+02 -0.45467387071E+02  0.52518889872E+02  0.82359837989E+02  0.46999998093E+01 0.  1.
       13    1    6    6    0    0 -0.10889134207E+03 -0.13474813865E+03 -0.59192174611E+02  0.18307948761E+03  0.00000000000E+00 0. -1.
      -13    1    4    4    0    0  0.45275213686E+02  0.10315802421E+03 -0.29326659793E+03  0.31416034185E+03  0.00000000000E+00 0.  1.
       14    1    4    4    0    0  0.72244772813E+02  0.88787382085E+02 -0.58132556330E+03  0.59248790448E+03  0.00000000000E+00 0. -1.
      -14    1    6    6    0    0 -0.17400098120E+03 -0.15844758893E+03  0.20266007757E+02  0.23620476491E+03  0.00000000000E+00 0.  1.
</event>
<event>
12   0  0.9284400E-04  0.1785680E+03  0.7546771E-02  0.1169351E+00
       21   -1    0    0  501  502  0.00000000000E+00  0.00000000000E+00  0.39085476594E+03  0.39085476594E+03  0.00000000000E+00 0. -1.
       21   -1    0    0  502  503  0.00000000000E+00  0.00000000000E+00 -0.19157091142E+03  0.19157091142E+03  0.00000000000E+00 0. -1.
       -6    2    1    2    0  503 -0.29873962537E+02  0.30718470638E+02 -0.12138180066E+03  0.21539301314E+03  0.17269780109E+03 0.  0.
      -24    2    3    3    0    0 -0.80835671320E+02  0.49653301502E+02 -0.81426057897E+02  0.14776036599E+03  0.78759550192E+02 0.  0.
        6    2    1    2  501    0  0.29873962537E+02 -0.30718470638E+02  0.32066565517E+03  0.36703266421E+03  0.17335061614E+03 0.  0.
       24    2    5    5    0    0  0.44539040566E+02 -0.76612254909E+01  0.74355826896E+02  0.11916713097E+03  0.81422328626E+02 0.  0.
        5    1    5    5  501    0 -0.14665078029E+02 -0.23057245147E+02  0.24630982828E+03  0.24786553325E+03  0.46999998093E+01 0. -1.
       -5    1    3    3    0  503  0.50961708783E+02 -0.18934830863E+02 -0.39955742759E+02  0.67632647143E+02  0.46999998093E+01 0.  1.
       13    1    4    4    0    0 -0.69579357024E+02  0.53272909851E+02 -0.95343883439E+02  0.12949805387E+03  0.00000000000E+00 0. -1.
      -13    1    6    6    0    0 -0.13808082194E+02  0.22575506357E+02  0.29338624204E+02  0.39510397256E+02  0.00000000000E+00 0.  1.
       14    1    6    6    0    0  0.58347122760E+02 -0.30236731848E+02  0.45017202691E+02  0.79656733710E+02  0.00000000000E+00 0. -1.
      -14    1    4    4    0    0 -0.11256314297E+02 -0.36196083498E+01  0.13917825543E+02  0.18262312121E+02  0.00000000000E+00 0.  1.
</event>
<event>
12   0  0.9284400E-04  0.1990759E+03  0.7546771E-02  0.1151553E+00
       21   -1    0    0  501  502  0.00000000000E+00  0.00000000000E+00  0.83292775143E+02  0.83292775143E+02  0.00000000000E+00 0.  1.
       21   -1    0    0  502  503  0.00000000000E+00  0.00000000000E+00 -0.69160104131E+03  0.69160104131E+03  0.00000000000E+00 0. -1.
        6    2    1    2  501    0 -0.61921961556E+02  0.63279784960E+02 -0.79604165095E+02  0.20995202789E+03  0.17292880156E+03 0.  0.
       24    2    3    3    0    0 -0.77964806802E+02  0.27431149563E+02  0.63635777937E+01  0.11532095287E+03  0.80171366355E+02 0.  0.
       -6    2    1    2    0  503  0.61921961556E+02 -0.63279784960E+02 -0.52870410107E+03  0.56494178856E+03  0.17830461986E+03 0.  0.
      -24    2    5    5    0    0 -0.32641270747E+02  0.24388560603E+02 -0.22977369654E+03  0.23935090959E+03  0.53222662988E+02 0.  0.
        5    1    3    3  501    0  0.16042845246E+02  0.35848635397E+02 -0.85967742888E+02  0.94631075017E+02  0.46999998093E+01 0. -1.
       -5    1    5    5    0  503  0.94563232302E+02 -0.87668345564E+02 -0.29893040453E+03  0.32559087897E+03  0.46999998093E+01 0.  1.
       13    1    6    6    0    0  0.54409704341E+01  0.25450416655E+02 -0.60804262078E+02  0.66139898352E+02  0.00000000000E+00 0. -1.
      -13    1    4    4    0    0 -0.65942734773E+02 -0.77489519588E+01  0.28275632250E+02  0.72166487409E+02  0.00000000000E+00 0.  1.
       14    1    4    4    0    0 -0.12022072029E+02  0.35180101522E+02 -0.21912054457E+02  0.43154465464E+02  0.00000000000E+00 0. -1.
      -14    1    6    6    0    0 -0.38082241181E+02 -0.10618560515E+01 -0.16896943446E+03  0.17321101124E+03  0.00000000000E+00 0.  1.
</event>
<event>
12   0  0.9284400E-04  0.1815204E+03  0.7546771E-02  0.1166400E+00
       21   -1    0    0  501  502  0.00000000000E+00  0.00000000000E+00  0.20012190090E+03  0.20012190090E+03  0.00000000000E+00 0.  1.
       21   -1    0    0  502  503  0.00000000000E+00  0.00000000000E+00 -0.16442287219E+03  0.16442287219E+03  0.00000000000E+00 0.  1.
       -6    2    1    2    0  503  0.10819132619E+02 -0.54706099994E+02  0.17146776068E+02  0.18207872527E+03  0.17247851826E+03 0.  0.
      -24    2    3    3    0    0 -0.18562785196E+02 -0.17128003020E+02  0.71207432780E+02  0.10982877670E+03  0.79711456054E+02 0.  0.
        6    2    1    2  501    0 -0.10819132619E+02  0.54706099994E+02  0.18552252642E+02  0.18246604782E+03  0.17274218223E+03 0.  0.
       24    2    5    5    0    0 -0.19651633784E+02  0.84531040172E+02 -0.31944844501E+02  0.12297161991E+03  0.81054689875E+02 0.  0.
        5    1    5    5  501    0  0.88325011656E+01 -0.29824940178E+02  0.50497097143E+02  0.59494427904E+02  0.46999998093E+01 0. -1.
       -5    1    3    3    0  503  0.29381917815E+02 -0.37578096975E+02 -0.54060656712E+02  0.72249948575E+02  0.46999998093E+01 0.  1.
       13    1    4    4    0    0  0.25426929332E+02  0.13041538608E+02  0.14751808414E+02  0.32159389236E+02  0.00000000000E+00 0. -1.
      -13    1    6    6    0    0 -0.41804349421E+02  0.62920087718E+02  0.38665379945E+01  0.75640539296E+02  0.00000000000E+00 0.  1.
       14    1    6    6    0    0  0.22152715637E+02  0.21610952455E+02 -0.35811382495E+02  0.47331080616E+02  0.00000000000E+00 0. -1.
      -14    1    4    4    0    0 -0.43989714528E+02 -0.30169541627E+02  0.56455624365E+02  0.77669387462E+02  0.00000000000E+00 0.  1.
</event>
<event>
11   0  0.9284400E-04  0.2229845E+03  0.7546771E-02  0.1137466E+00
       21   -1    0    0  501  502  0.00000000000E+00  0.00000000000E+00  0.32459597252E+03  0.32459597252E+03  0.00000000000E+00 0. -1.
       21   -1    0    0  502  503  0.00000000000E+00  0.00000000000E+00 -0.14946983177E+03  0.14946983177E+03  0.00000000000E+00 0. -1.
      -24    2    1    2    0    0  0.93037146432E+02 -0.26640882804E+02  0.30710837890E+02  0.11996229824E+03  0.63891706682E+02 0.  0.
        6    2    1    2  501    0 -0.92564500581E+02  0.95702390562E+02  0.16990292897E+03  0.28033749537E+03  0.17887138315E+03 0.  0.
       24    2    4    4    0    0 -0.42501455744E+02  0.68734179520E+02  0.18745768365E+03  0.22063948640E+03  0.83729556442E+02 0.  0.
        5    1    4    4  501    0 -0.50063044837E+02  0.26968211042E+02 -0.17554754682E+02  0.59698008973E+02  0.46999998093E+01 0. -1.
       -5    1    1    2    0  503 -0.47264585095E+00 -0.69061507758E+02 -0.25487626120E+02  0.73766010678E+02  0.46999998093E+01 0.  1.
       13    1    3    3    0    0  0.23347387092E+02 -0.21051448856E+02 -0.16595187818E+02  0.35548055385E+02  0.00000000000E+00 0. -1.
      -13    1    5    5    0    0  0.18829646609E+02  0.10199713449E+01  0.66097813221E+02  0.68735120903E+02  0.00000000000E+00 0.  1.
       14    1    5    5    0    0 -0.61331102353E+02  0.67714208175E+02  0.12135987043E+03  0.15190436549E+03  0.00000000000E+00 0. -1.
      -14    1    3    3    0    0  0.69689759340E+02 -0.55894339484E+01  0.47306025708E+02  0.84414242856E+02  0.00000000000E+00 0.  1.
</event>
<event>
12   0  0.9284400E-04  0.1797304E+03  0.7546771E-02  0.1168375E+00
       21   -1    0    0  503  502  0.00000000000E+00  0.00000000000E+00  0.51521654903E+03  0.51521654903E+03  0.00000000000E+00 0. -1.
       21   -1    0    0  501  503  0.00000000000E+00  0.00000000000E+00 -0.77198237071E+02  0.77198237071E+02  0.00000000000E+00 0. -1.
        6    2    1    2  501    0  0.25386082207E+02 -0.37025509711E+02  0.89309324644E+02  0.20069674340E+03  0.17403357666E+03 0.  0.
       24    2    3    3    0    0 -0.16322182220E+02  0.37006742725E+02  0.25079435966E+02  0.94076284204E+02  0.81150825638E+02 0.  0.
       -6    2    1    2    0  502 -0.25386082207E+02  0.37025509711E+02  0.34870898731E+03  0.39171804269E+03  0.17271284145E+03 0.  0.
      -24    2    5    5    0    0  0.25772903419E+02  0.13998428806E+02  0.31463844432E+03  0.32591241859E+03  0.79758105480E+02 0.  0.
        5    1    3    3  501    0  0.41708264426E+02 -0.74032252437E+02  0.64229888679E+02  0.10662045920E+03  0.46999998093E+01 0. -1.
       -5    1    5    5    0  502 -0.51158985625E+02  0.23027080906E+02  0.34070542991E+02  0.65805624100E+02  0.46999998093E+01 0.  1.
       13    1    6    6    0    0 -0.26554484742E+02  0.85771233554E+01  0.16387904383E+03  0.16623792802E+03  0.00000000000E+00 0. -1.
      -13    1    4    4    0    0 -0.18923193014E+02 -0.20308482563E+02  0.23995176013E+02  0.36691827016E+02  0.00000000000E+00 0.  1.
       14    1    4    4    0    0  0.26010107944E+01  0.57315225289E+02  0.10842599524E+01  0.57384457187E+02  0.00000000000E+00 0. -1.
      -14    1    6    6    0    0  0.52327388161E+02  0.54213054502E+01  0.15075940049E+03  0.15967449058E+03  0.00000000000E+00 0.  1.
</event>
<event>
12   0  0.9284400E-04  0.2196323E+03  0.7546771E-02  0.1134273E+00
       21   -1    0    0  501  502  0.00000000000E+00  0.00000000000E+00  0.90420239454E+02  0.90420239454E+02  0.00000000000E+00 0. -1.
       21   -1    0    0  502  503  0.00000000000E+00  0.00000000000E+00 -0.53924349177E+03  0.53924349177E+03  0.00000000000E+00 0.  1.
       -6    2    1    2    0  503 -0.13063017411E+02  0.13451300515E+03 -0.26124923088E+03  0.34130556691E+03  0.17312983103E+03 0.  0.
      -24    2    3    3    0    0 -0.27284849905E+02  0.53909225329E+01 -0.14142584737E+03  0.16451612726E+03  0.79314316138E+02 0.  0.
        6    2    1    2  501    0  0.13063017411E+02 -0.13451300515E+03 -0.18757402144E+03  0.28835816431E+03  0.17234275856E+03 0.  0.
       24    2    5    5    0    0 -0.13563049660E+02 -0.97778236282E+02 -0.20580216338E+03  0.23923845494E+03  0.71665668658E+02 0.  0.
        5    1    5    5  501    0  0.26626067071E+02 -0.36734768866E+02  0.18228141946E+02  0.49119709367E+02  0.46999998093E+01 0. -1.
       -5    1    3    3    0  503  0.14221832495E+02  0.12912208262E+03 -0.11982338350E+03  0.17678943965E+03  0.46999998093E+01 0.  1.
       13    1    4    4    0    0  0.19854938254E+02  0.18054468153E+01 -0.56155672305E+01  0.20712624329E+02  0.00000000000E+00 0. -1.
      -13    1    6    6    0    0  0.26223983742E+02 -0.15171062004E+02 -0.51002713286E+02  0.59322299417E+02  0.00000000000E+00 0.  1.
       14    1    6    6    0    0 -0.39787033402E+02 -0.82607174279E+02 -0.15479945010E+03  0.17991615553E+03  0.00000000000E+00 0. -1.
      -14    1    4    4    0    0 -0.47139788159E+02  0.35854757177E+01 -0.13581028014E+03  0.14380350294E+03  0.00000000000E+00 0.  1.
</event>
<event>
12   0  0.9284400E-04  0.1737464E+03  0.7546771E-02  0.1173996E+00
       -1   -1    0    0    0  501  0.00000000000E+00  0.00000000000E+00  0.56216797038E+02  0.56216797038E+02  0.00000000000E+00 0.  1.
        1   -1    0    0  502    0  0.00000000000E+00  0.00000000000E+00 -0.53764182330E+03  0.53764182330E+03  0.00000000000E+00 0. -1.
        6    2    1    2  502    0  0.21371451909E+02  0.64411858046E+00 -0.22971242506E+03  0.28772106574E+03  0.17192573861E+03 0.  0.
       24    2    3    3    0    0 -0.25278391607E+02  0.23688398988E+02 -0.50576837694E+02  0.10112284651E+03  0.80421864227E+02 0.  0.
       -6    2    1    2    0  501 -0.21371451909E+02 -0.64411858046E+00 -0.25171260120E+03  0.30613755460E+03  0.17292719534E+03 0.  0.
      -24    2    5    5    0    0  0.10380524138E+02 -0.61580670693E+01 -0.25976654349E+03  0.27258837286E+03  0.81731798143E+02 0.  0.
        5    1    3    3  502    0  0.46649843516E+02 -0.23044280408E+02 -0.17913558737E+03  0.18659821923E+03  0.46999998093E+01 0. -1.
       -5    1    5    5    0  501 -0.31751976047E+02  0.55139484889E+01  0.80539422954E+01  0.33549181742E+02  0.46999998093E+01 0.  1.
       13    1    6    6    0    0  0.25920622133E+02  0.31801117029E+02 -0.14594334584E+03  0.15160029648E+03  0.00000000000E+00 0. -1.
      -13    1    4    4    0    0 -0.53781060008E+01  0.47642376178E+02 -0.50973206494E+02  0.69978481067E+02  0.00000000000E+00 0.  1.
       14    1    4    4    0    0 -0.19900285606E+02 -0.23953977190E+02  0.39636880069E+00  0.31144365440E+02  0.00000000000E+00 0. -1.
      -14    1    6    6    0    0 -0.15540097995E+02 -0.37959184098E+02 -0.11382319765E+03  0.12098807638E+03  0.00000000000E+00 0.  1.
</event>
<event>
12   0  0.9284400E-04  0.3392794E+03  0.7546771E-02  0.1067970E+00
       21   -1    0    0  503  502  0.00000000000E+00  0.00000000000E+00  0.78640507188E+02  0.78640507188E+02  0.00000000000E+00 0. -1.
       21   -1    0    0  501  503  0.00000000000E+00  0.00000000000E+00 -0.16442824355E+04  0.16442824355E+04  0.00000000000E+00 0.  1.
        6    2    1    2  501    0  0.11346579330E+03 -0.25796405487E+03 -0.46325636040E+03  0.56950869459E+03  0.17410846592E+03 0.  0.
       24    2    3    3    0    0 -0.34754898999E+01 -0.14516913983E+03 -0.27037327614E+03  0.31727084896E+03  0.80454489987E+02 0.  0.
       -6    2    1    2    0  502 -0.11346579330E+03  0.25796405487E+03 -0.11023855679E+04  0.11534142481E+04  0.18891942072E+03 0.  0.
      -24    2    5    5    0    0 -0.52301602446E+02  0.26132559532E+02 -0.38967667313E+03  0.40144153638E+03  0.76740010825E+02 0.  0.
        5    1    3    3  501    0  0.11694128320E+03 -0.11279491504E+03 -0.19288308425E+03  0.25223784562E+03  0.46999998093E+01 0. -1.
       -5    1    5    5    0  502 -0.61164190851E+02  0.23183149534E+03 -0.71270889475E+03  0.75197271169E+03  0.46999998093E+01 0.  1.
       13    1    6    6    0    0 -0.27869171034E+02  0.20550450735E+02 -0.49874340218E+02  0.60716237793E+02  0.00000000000E+00 0. -1.
      -13    1    4    4    0    0 -0.21408593101E+02 -0.13053099537E+02 -0.15081672317E+02  0.29260350407E+02  0.00000000000E+00 0.  1.
       14    1    4    4    0    0  0.17933103201E+02 -0.13211604030E+03 -0.25529160383E+03  0.28801049855E+03  0.00000000000E+00 0. -1.
      -14    1    6    6    0    0 -0.24432431413E+02  0.55821087968E+01 -0.33980233291E+03  0.34072529859E+03  0.00000000000E+00 0.  1.
</event>
<event>
12   0  0.9284400E-04  0.2340633E+03  0.7546771E-02  0.1124241E+00
       21   -1    0    0  501  502  0.00000000000E+00  0.00000000000E+00  0.82139493779E+02  0.82139493779E+02  0.00000000000E+00 0.  1.
       21   -1    0    0  502  503  0.00000000000E+00  0.00000000000E+00 -0.66961189447E+03  0.66961189447E+03  0.00000000000E+00 0. -1.
       -6    2    1    2    0  503  0.14034412455E+03 -0.70316011813E+02 -0.34044571949E+03  0.41314516074E+03  0.17362263997E+03 0.  0.
      -24    2    3    3    0    0  0.32489985389E+02  0.17235319059E+02 -0.17527149982E+03  0.19726935452E+03  0.82719067979E+02 0.  0.
        6    2    1    2  501    0 -0.14034412455E+03  0.70316011813E+02 -0.24702668120E+03  0.33860622750E+03  0.17026796900E+03 0.  0.
       24    2    5    5    0    0 -0.21764041624E+02  0.87880026990E+01 -0.44374778351E+02  0.95837169141E+02  0.81637856023E+02 0.  0.
        5    1    5    5  501    0 -0.11858008293E+03  0.61528009115E+02 -0.20265190284E+03  0.24276905836E+03  0.46999998093E+01 0. -1.
       -5    1    3    3    0  503  0.10785413916E+03 -0.87551330873E+02 -0.16517421967E+03  0.21587580623E+03  0.46999998093E+01 0.  1.
       13    1    4    4    0    0 -0.14623978270E+02 -0.18942901451E+02 -0.91478151809E+02  0.94556578376E+02  0.00000000000E+00 0. -1.
      -13    1    6    6    0    0 -0.34336867438E+02 -0.15380919135E+02 -0.54963944296E+02  0.66608019873E+02  0.00000000000E+00 0.  1.
       14    1    6    6    0    0  0.12572825814E+02  0.24168921834E+02  0.10589165945E+02  0.29229149268E+02  0.00000000000E+00 0. -1.
      -14    1    4    4    0    0  0.47113963659E+02  0.36178220510E+02 -0.83793348015E+02  0.10271277614E+03  0.00000000000E+00 0.  1.
</event>
<event>
12   0  0.9284400E-04  0.1974350E+03  0.7546771E-02  0.1152204E+00
       21   -1    0    0  501  502  0.00000000000E+00  0.00000000000E+00  0.17729639049E+03  0.17729639049E+03  0.00000000000E+00 0.  1.
       21   -1    0    0  502  503  0.00000000000E+00  0.00000000000E+00 -0.46010879302E+03  0.46010879302E+03  0.00000000000E+00 0.  1.
       -6    2    1    2    0  503  0.69928788917E+02 -0.63149698045E+02 -0.37262222643E+03  0.42169647222E+03  0.17350121376E+03 0.  0.
      -24    2    3    3    0    0 -0.13243283702E+02 -0.26668100378E+02 -0.87007297894E+02  0.12195245138E+03  0.80097180789E+02 0.  0.
        6    2    1    2  501    0 -0.69928788917E+02  0.63149698045E+02  0.89809823890E+02  0.21570871129E+03  0.17200733640E+03 0.  0.
       24    2    5    5    0    0 -0.39786340039E+02  0.40475117856E+02  0.12515675925E+03  0.16380303098E+03  0.89140510175E+02 0.  0.
        5    1    5    5  501    0 -0.30142448878E+02  0.22674580189E+02 -0.35346935355E+02  0.51905680309E+02  0.46999998093E+01 0. -1.
       -5    1    3    3    0  503  0.83172072619E+02 -0.36481597667E+02 -0.28561492853E+03  0.29974402084E+03  0.46999998093E+01 0.  1.
       13    1    4    4    0    0 -0.45915146141E+02 -0.12530392809E+02 -0.35659572830E+02  0.59471140257E+02  0.00000000000E+00 0. -1.
      -13    1    6    6    0    0 -0.62191674442E+02  0.82408332955E+01  0.55097556212E+02  0.83495247792E+02  0.00000000000E+00 0.  1.
       14    1    6    6    0    0  0.22405334404E+02  0.32234284560E+02  0.70059203034E+02  0.80307783188E+02  0.00000000000E+00 0. -1.
      -14    1    4    4    0    0  0.32671862440E+02 -0.14137707569E+02 -0.51347725064E+02  0.62481311124E+02  0.00000000000E+00 0.  1.
</event>
<event>
12   0  0.9284400E-04  0.3121946E+03  0.7546771E-02  0.1079363E+00
       21   -1    0    0  503  502  0.00000000000E+00  0.00000000000E+00  0.83469769139E+03  0.83469769139E+03  0.00000000000E+00 0.  1.
       21   -1    0    0  501  503  0.00000000000E+00  0.00000000000E+00 -0.28585632497E+03  0.28585632497E+03  0.00000000000E+00 0.  1.
        6    2    1    2  501    0  0.21894500411E+03 -0.14087074345E+03 -0.15684602406E+03  0.34889337800E+03  0.17130216799E+03 0.  0.
       24    2    3    3    0    0  0.98536625406E+02 -0.21601544204E+02 -0.11978145230E+03  0.17534456057E+03  0.78879815840E+02 0.  0.
       -6    2    1    2    0  502 -0.21894500411E+03  0.14087074345E+03  0.70568739048E+03  0.77166063837E+03  0.17229035532E+03 0.  0.
      -24    2    5    5    0    0 -0.34975754430E+02  0.20252239080E+02  0.24909443304E+03  0.26481477698E+03  0.80283080090E+02 0.  0.
        5    1    3    3  501    0  0.12040837871E+03 -0.11926919925E+03 -0.37064571764E+02  0.17354881743E+03  0.46999998093E+01 0. -1.
       -5    1    5    5    0  502 -0.18396924968E+03  0.12061850437E+03  0.45659295744E+03  0.50684586139E+03  0.46999998093E+01 0.  1.
       13    1    6    6    0    0 -0.52499354671E+02 -0.96745002370E+01  0.12401496888E+03  0.13501663120E+03  0.00000000000E+00 0. -1.
      -13    1    4    4    0    0  0.51788210388E+02 -0.36768301192E+02 -0.10721650073E+03  0.12461663106E+03  0.00000000000E+00 0.  1.
       14    1    4    4    0    0  0.46748415018E+02  0.15166756988E+02 -0.12564951570E+02  0.50727929508E+02  0.00000000000E+00 0. -1.
      -14    1    6    6    0    0  0.17523600241E+02  0.29926739317E+02  0.12507946416E+03  0.12979814578E+03  0.00000000000E+00 0.  1.
</event>
<event>
12   0  0.9284400E-04  0.2175603E+03  0.7546771E-02  0.1135975E+00
       21   -1    0    0  503  502  0.00000000000E+00  0.00000000000E+00  0.21132965675E+03  0.21132965675E+03  0.00000000000E+00 0.  1.
       21   -1    0    0  501  503  0.00000000000E+00  0.00000000000E+00 -0.22318645084E+03  0.22318645084E+03  0.00000000000E+00 0.  1.
        6    2    1    2  501    0 -0.92022267890E+02  0.90387231293E+02  0.54846611126E+01  0.21762941341E+03  0.17519854653E+03 0.  0.
       24    2    3    3    0    0 -0.88833049757E+02  0.85077712378E+02  0.63672648141E+02  0.15892426938E+03  0.77930670498E+02 0.  0.
       -6    2    1    2    0  502  0.92022267890E+02 -0.90387231293E+02 -0.17341455204E+02  0.21688669417E+03  0.17349686646E+03 0.  0.
      -24    2    5    5    0    0  0.11254988244E+02  0.91712327226E+01 -0.29341457623E+02  0.88040540659E+02  0.81727776148E+02 0.  0.
        5    1    3    3  501    0 -0.31892181330E+01  0.53095189152E+01 -0.58187987028E+02  0.58705144033E+02  0.46999998093E+01 0. -1.
       -5    1    5    5    0  502  0.80767279646E+02 -0.99558464016E+02  0.12000002418E+02  0.12884615351E+03  0.46999998093E+01 0.  1.
       13    1    6    6    0    0 -0.24100033366E+02  0.42595041562E+00  0.16708722585E+02  0.29328730835E+02  0.00000000000E+00 0. -1.
      -13    1    4    4    0    0 -0.48309083352E+02  0.46139395214E+02 -0.86201252603E+01  0.67356646922E+02  0.00000000000E+00 0.  1.
       14    1    4    4    0    0 -0.40523966405E+02  0.38938317163E+02  0.72292773401E+02  0.91567622458E+02  0.00000000000E+00 0. -1.
      -14    1    6    6    0    0  0.35355021610E+02  0.87452823070E+01 -0.46050180207E+02  0.58711809824E+02  0.00000000000E+00 0.  1.
</event>
<event>
12   0  0.9284400E-04  0.1806655E+03  0.7546771E-02  0.1168981E+00
       21   -1    0    0  503  502  0.00000000000E+00  0.00000000000E+00  0.10341210088E+04  0.10341210088E+04  0.00000000000E+00 0. -1.
       21   -1    0    0  501  503  0.00000000000E+00  0.00000000000E+00 -0.41889769320E+02  0.41889769320E+02  0.00000000000E+00 0. -1.
        6    2    1    2  501    0  0.29933032888E+02  0.45817860732E+02  0.20548917568E+03  0.26879141354E+03  0.16440121609E+03 0.  0.
       24    2    3    3    0    0  0.67544166923E+02  0.55355880618E+02  0.19418898315E+03  0.22810535234E+03  0.81830328018E+02 0.  0.
       -6    2    1    2    0  502 -0.29933032888E+02 -0.45817860732E+02  0.78674206379E+03  0.80721936457E+03  0.17217655120E+03 0.  0.
      -24    2    5    5    0    0 -0.52866477199E+02 -0.87458605034E+02  0.63198443560E+03  0.64525669006E+03  0.80672158881E+02 0.  0.
        5    1    3    3  501    0 -0.37611134036E+02 -0.95380198858E+01  0.11300192529E+02  0.40686061203E+02  0.46999998093E+01 0. -1.
       -5    1    5    5    0  502  0.22933444311E+02  0.41640744302E+02  0.15475762818E+03  0.16196267450E+03  0.46999998093E+01 0.  1.
       13    1    6    6    0    0 -0.50186009117E+02 -0.14543349436E+02  0.18035939726E+03  0.18777554874E+03  0.00000000000E+00 0. -1.
      -13    1    4    4    0    0  0.35638723595E+02  0.61640797376E+02  0.17813895249E+03  0.19184158286E+03  0.00000000000E+00 0.  1.
       14    1    4    4    0    0  0.31905443329E+02 -0.62849167580E+01  0.16050030669E+02  0.36263769483E+02  0.00000000000E+00 0. -1.
      -14    1    6    6    0    0 -0.26804680815E+01 -0.72915255597E+02  0.45162503835E+03  0.45748114133E+03  0.00000000000E+00 0.  1.
</event>
<event>
12   0  0.9284400E-04  0.2535660E+03  0.7546771E-02  0.1111072E+00
        1   -1    0    0  502    0  0.00000000000E+00  0.00000000000E+00  0.41060236684E+03  0.41060236684E+03  0.00000000000E+00 0.  1.
       -1   -1    0    0    0  501  0.00000000000E+00  0.00000000000E+00 -0.25298435707E+03  0.25298435707E+03  0.00000000000E+00 0. -1.
        6    2    1    2  502    0  0.73989832692E+02 -0.16988003584E+03 -0.12608639839E+03  0.28278012473E+03  0.17243287728E+03 0.  0.
       24    2    3    3    0    0  0.43623342156E+02 -0.17782294892E+03 -0.59264028451E+02  0.20880355589E+03  0.81010510082E+02 0.  0.
       -6    2    1    2    0  501 -0.73989832692E+02  0.16988003584E+03  0.28370440816E+03  0.38080659918E+03  0.17375774184E+03 0.  0.
      -24    2    5    5    0    0 -0.18551517248E+02  0.16901820168E+03  0.25907532019E+03  0.31995570313E+03  0.79626120985E+02 0.  0.
        5    1    3    3  502    0  0.30366490536E+02  0.79429130715E+01 -0.66822369935E+02  0.73976568841E+02  0.46999998093E+01 0. -1.
       -5    1    5    5    0  501 -0.55438315444E+02  0.86183415989E+00  0.24629087970E+02  0.60850896048E+02  0.46999998093E+01 0.  1.
       13    1    6    6    0    0  0.29073227041E+01  0.14178054393E+02 -0.30190344604E+01  0.14784597416E+02  0.00000000000E+00 0. -1.
      -13    1    4    4    0    0 -0.10302944474E+02 -0.34308547184E+02  0.14529756593E+02  0.38656705775E+02  0.00000000000E+00 0.  1.
       14    1    4    4    0    0  0.53926286630E+02 -0.14351440173E+03 -0.73793785045E+02  0.17014685012E+03  0.00000000000E+00 0. -1.
      -14    1    6    6    0    0 -0.21458839952E+02  0.15484014729E+03  0.26209435465E+03  0.30517110572E+03  0.00000000000E+00 0.  1.
</event>
</LesHouchesEvents>
